
     Program PWSCF v.7.4.1 starts on 12Jul2026 at 11:54:44 

     This program is part of the open-source Quantum ESPRESSO suite
     for quantum simulation of materials; please cite
         "P. Giannozzi et al., J. Phys.:Condens. Matter 21 395502 (2009);
         "P. Giannozzi et al., J. Phys.:Condens. Matter 29 465901 (2017);
         "P. Giannozzi et al., J. Chem. Phys. 152 154105 (2020);
          URL http://www.quantum-espresso.org", 
     in publications or presentations arising from this work. More details at
     http://www.quantum-espresso.org/quote

     Parallel version (MPI), running on     1 processors

     MPI processes distributed on     1 nodes
     17424 MiB available memory on the printing compute node when the environment starts
 
     Reading input from mo_atom.in

     Current dimensions of program PWSCF are:
     Max number of different atomic species (ntypx) = 10
     Max number of k-points (npk) =  40000
     Max angular momentum in pseudopotentials (lmaxx) =  4

     gamma-point specific algorithms are used
     Message from routine setup:
     no reason to have ecutrho>4*ecutwfc
 
     Subspace diagonalization in iterative solution of the eigenvalue problem:
     a serial algorithm will be used

 
     G-vector sticks info
     --------------------
     sticks:   dense  smooth     PW     G-vecs:    dense   smooth      PW
     Sum       22389   20461   5129              2518261  2201421  274961
 
     Using Slab Decomposition
 


     bravais-lattice index     =            1
     lattice parameter (alat)  =      28.3459  a.u.
     unit-cell volume          =   22775.6289 (a.u.)^3
     number of atoms/cell      =            1
     number of atomic types    =            1
     number of electrons       =        14.00 (up:  10.00, down:   4.00)
     number of Kohn-Sham states=           14
     kinetic-energy cutoff     =      80.0000  Ry
     charge density cutoff     =     350.0000  Ry
     scf convergence threshold =      1.0E-06
     mixing beta               =       0.4000
     number of iterations used =            8  plain     mixing
     Exchange-correlation= PBE
                           (   1   4   3   4   0   0   0)

     GPU acceleration is ACTIVE.  1 visible GPUs per MPI rank
     GPU-aware MPI enabled


     GPU used by master process:

        Device Number: 0
        Device name: NVIDIA RTX A2000 12GB
        Compute capability : 86
        Ratio of single to double precision performance  : 64
        Memory Clock Rate (KHz): 6001000
        Memory Bus Width (bits): 192
        Peak Memory Bandwidth (GB/s): 288.05

     celldm(1)=  28.345892  celldm(2)=   0.000000  celldm(3)=   0.000000
     celldm(4)=   0.000000  celldm(5)=   0.000000  celldm(6)=   0.000000

     crystal axes: (cart. coord. in units of alat)
               a(1) = (   1.000000   0.000000   0.000000 )  
               a(2) = (   0.000000   1.000000   0.000000 )  
               a(3) = (   0.000000   0.000000   1.000000 )  

     reciprocal axes: (cart. coord. in units 2 pi/alat)
               b(1) = (  1.000000  0.000000  0.000000 )  
               b(2) = (  0.000000  1.000000  0.000000 )  
               b(3) = (  0.000000  0.000000  1.000000 )  


     PseudoPot. # 1 for Mo read from file:
     ./../pseudo/Mo_ONCV_PBE_sr.upf
     MD5 check sum: f6cd2699259e285988a5451c48631988
     Pseudo is Norm-conserving, Zval = 14.0
     Generated using ONCVPSP code by D. R. Hamann
     Using radial grid of 1526 points,  6 beta functions with: 
                l(1) =   0
                l(2) =   0
                l(3) =   1
                l(4) =   1
                l(5) =   2
                l(6) =   2

     atomic species   valence    mass     pseudopotential
     Mo               14.00    95.95000     Mo( 1.00)

     Starting magnetic structure 
     atomic species   magnetization
     Mo              0.000

     48 Sym. Ops., with inversion, found


                                    s                        frac. trans.

      isym =  1     identity                                     

 cryst.   s( 1) = (     1          0          0      )
                  (     0          1          0      )
                  (     0          0          1      )

 cart.    s( 1) = (  1.0000000  0.0000000  0.0000000 )
                  (  0.0000000  1.0000000  0.0000000 )
                  (  0.0000000  0.0000000  1.0000000 )


      isym =  2     180 deg rotation - cart. axis [0,0,1]        

 cryst.   s( 2) = (    -1          0          0      )
                  (     0         -1          0      )
                  (     0          0          1      )

 cart.    s( 2) = ( -1.0000000  0.0000000  0.0000000 )
                  (  0.0000000 -1.0000000  0.0000000 )
                  (  0.0000000  0.0000000  1.0000000 )


      isym =  3     180 deg rotation - cart. axis [0,1,0]        

 cryst.   s( 3) = (    -1          0          0      )
                  (     0          1          0      )
                  (     0          0         -1      )

 cart.    s( 3) = ( -1.0000000  0.0000000  0.0000000 )
                  (  0.0000000  1.0000000  0.0000000 )
                  (  0.0000000  0.0000000 -1.0000000 )


      isym =  4     180 deg rotation - cart. axis [1,0,0]        

 cryst.   s( 4) = (     1          0          0      )
                  (     0         -1          0      )
                  (     0          0         -1      )

 cart.    s( 4) = (  1.0000000  0.0000000  0.0000000 )
                  (  0.0000000 -1.0000000  0.0000000 )
                  (  0.0000000  0.0000000 -1.0000000 )


      isym =  5     180 deg rotation - cart. axis [1,1,0]        

 cryst.   s( 5) = (     0          1          0      )
                  (     1          0          0      )
                  (     0          0         -1      )

 cart.    s( 5) = (  0.0000000  1.0000000  0.0000000 )
                  (  1.0000000  0.0000000  0.0000000 )
                  (  0.0000000  0.0000000 -1.0000000 )


      isym =  6     180 deg rotation - cart. axis [1,-1,0]       

 cryst.   s( 6) = (     0         -1          0      )
                  (    -1          0          0      )
                  (     0          0         -1      )

 cart.    s( 6) = (  0.0000000 -1.0000000  0.0000000 )
                  ( -1.0000000  0.0000000  0.0000000 )
                  (  0.0000000  0.0000000 -1.0000000 )


      isym =  7      90 deg rotation - cart. axis [0,0,-1]       

 cryst.   s( 7) = (     0         -1          0      )
                  (     1          0          0      )
                  (     0          0          1      )

 cart.    s( 7) = (  0.0000000  1.0000000  0.0000000 )
                  ( -1.0000000  0.0000000  0.0000000 )
                  (  0.0000000  0.0000000  1.0000000 )


      isym =  8      90 deg rotation - cart. axis [0,0,1]        

 cryst.   s( 8) = (     0          1          0      )
                  (    -1          0          0      )
                  (     0          0          1      )

 cart.    s( 8) = (  0.0000000 -1.0000000  0.0000000 )
                  (  1.0000000  0.0000000  0.0000000 )
                  (  0.0000000  0.0000000  1.0000000 )


      isym =  9     180 deg rotation - cart. axis [1,0,1]        

 cryst.   s( 9) = (     0          0          1      )
                  (     0         -1          0      )
                  (     1          0          0      )

 cart.    s( 9) = (  0.0000000  0.0000000  1.0000000 )
                  (  0.0000000 -1.0000000  0.0000000 )
                  (  1.0000000  0.0000000  0.0000000 )


      isym = 10     180 deg rotation - cart. axis [-1,0,1]       

 cryst.   s(10) = (     0          0         -1      )
                  (     0         -1          0      )
                  (    -1          0          0      )

 cart.    s(10) = (  0.0000000  0.0000000 -1.0000000 )
                  (  0.0000000 -1.0000000  0.0000000 )
                  ( -1.0000000  0.0000000  0.0000000 )


      isym = 11      90 deg rotation - cart. axis [0,1,0]        

 cryst.   s(11) = (     0          0         -1      )
                  (     0          1          0      )
                  (     1          0          0      )

 cart.    s(11) = (  0.0000000  0.0000000  1.0000000 )
                  (  0.0000000  1.0000000  0.0000000 )
                  ( -1.0000000  0.0000000  0.0000000 )


      isym = 12      90 deg rotation - cart. axis [0,-1,0]       

 cryst.   s(12) = (     0          0          1      )
                  (     0          1          0      )
                  (    -1          0          0      )

 cart.    s(12) = (  0.0000000  0.0000000 -1.0000000 )
                  (  0.0000000  1.0000000  0.0000000 )
                  (  1.0000000  0.0000000  0.0000000 )


      isym = 13     180 deg rotation - cart. axis [0,1,1]        

 cryst.   s(13) = (    -1          0          0      )
                  (     0          0          1      )
                  (     0          1          0      )

 cart.    s(13) = ( -1.0000000  0.0000000  0.0000000 )
                  (  0.0000000  0.0000000  1.0000000 )
                  (  0.0000000  1.0000000  0.0000000 )


      isym = 14     180 deg rotation - cart. axis [0,1,-1]       

 cryst.   s(14) = (    -1          0          0      )
                  (     0          0         -1      )
                  (     0         -1          0      )

 cart.    s(14) = ( -1.0000000  0.0000000  0.0000000 )
                  (  0.0000000  0.0000000 -1.0000000 )
                  (  0.0000000 -1.0000000  0.0000000 )


      isym = 15      90 deg rotation - cart. axis [-1,0,0]       

 cryst.   s(15) = (     1          0          0      )
                  (     0          0         -1      )
                  (     0          1          0      )

 cart.    s(15) = (  1.0000000  0.0000000  0.0000000 )
                  (  0.0000000  0.0000000  1.0000000 )
                  (  0.0000000 -1.0000000  0.0000000 )


      isym = 16      90 deg rotation - cart. axis [1,0,0]        

 cryst.   s(16) = (     1          0          0      )
                  (     0          0          1      )
                  (     0         -1          0      )

 cart.    s(16) = (  1.0000000  0.0000000  0.0000000 )
                  (  0.0000000  0.0000000 -1.0000000 )
                  (  0.0000000  1.0000000  0.0000000 )


      isym = 17     120 deg rotation - cart. axis [-1,-1,-1]     

 cryst.   s(17) = (     0          0          1      )
                  (     1          0          0      )
                  (     0          1          0      )

 cart.    s(17) = (  0.0000000  1.0000000  0.0000000 )
                  (  0.0000000  0.0000000  1.0000000 )
                  (  1.0000000  0.0000000  0.0000000 )


      isym = 18     120 deg rotation - cart. axis [-1,1,1]       

 cryst.   s(18) = (     0          0         -1      )
                  (    -1          0          0      )
                  (     0          1          0      )

 cart.    s(18) = (  0.0000000 -1.0000000  0.0000000 )
                  (  0.0000000  0.0000000  1.0000000 )
                  ( -1.0000000  0.0000000  0.0000000 )


      isym = 19     120 deg rotation - cart. axis [1,1,-1]       

 cryst.   s(19) = (     0          0         -1      )
                  (     1          0          0      )
                  (     0         -1          0      )

 cart.    s(19) = (  0.0000000  1.0000000  0.0000000 )
                  (  0.0000000  0.0000000 -1.0000000 )
                  ( -1.0000000  0.0000000  0.0000000 )


      isym = 20     120 deg rotation - cart. axis [1,-1,1]       

 cryst.   s(20) = (     0          0          1      )
                  (    -1          0          0      )
                  (     0         -1          0      )

 cart.    s(20) = (  0.0000000 -1.0000000  0.0000000 )
                  (  0.0000000  0.0000000 -1.0000000 )
                  (  1.0000000  0.0000000  0.0000000 )


      isym = 21     120 deg rotation - cart. axis [1,1,1]        

 cryst.   s(21) = (     0          1          0      )
                  (     0          0          1      )
                  (     1          0          0      )

 cart.    s(21) = (  0.0000000  0.0000000  1.0000000 )
                  (  1.0000000  0.0000000  0.0000000 )
                  (  0.0000000  1.0000000  0.0000000 )


      isym = 22     120 deg rotation - cart. axis [-1,1,-1]      

 cryst.   s(22) = (     0         -1          0      )
                  (     0          0         -1      )
                  (     1          0          0      )

 cart.    s(22) = (  0.0000000  0.0000000  1.0000000 )
                  ( -1.0000000  0.0000000  0.0000000 )
                  (  0.0000000 -1.0000000  0.0000000 )


      isym = 23     120 deg rotation - cart. axis [1,-1,-1]      

 cryst.   s(23) = (     0         -1          0      )
                  (     0          0          1      )
                  (    -1          0          0      )

 cart.    s(23) = (  0.0000000  0.0000000 -1.0000000 )
                  ( -1.0000000  0.0000000  0.0000000 )
                  (  0.0000000  1.0000000  0.0000000 )


      isym = 24     120 deg rotation - cart. axis [-1,-1,1]      

 cryst.   s(24) = (     0          1          0      )
                  (     0          0         -1      )
                  (    -1          0          0      )

 cart.    s(24) = (  0.0000000  0.0000000 -1.0000000 )
                  (  1.0000000  0.0000000  0.0000000 )
                  (  0.0000000 -1.0000000  0.0000000 )


      isym = 25     inversion                                    

 cryst.   s(25) = (    -1          0          0      )
                  (     0         -1          0      )
                  (     0          0         -1      )

 cart.    s(25) = ( -1.0000000  0.0000000  0.0000000 )
                  (  0.0000000 -1.0000000  0.0000000 )
                  (  0.0000000  0.0000000 -1.0000000 )


      isym = 26     inv. 180 deg rotation - cart. axis [0,0,1]   

 cryst.   s(26) = (     1          0          0      )
                  (     0          1          0      )
                  (     0          0         -1      )

 cart.    s(26) = (  1.0000000  0.0000000  0.0000000 )
                  (  0.0000000  1.0000000  0.0000000 )
                  (  0.0000000  0.0000000 -1.0000000 )


      isym = 27     inv. 180 deg rotation - cart. axis [0,1,0]   

 cryst.   s(27) = (     1          0          0      )
                  (     0         -1          0      )
                  (     0          0          1      )

 cart.    s(27) = (  1.0000000  0.0000000  0.0000000 )
                  (  0.0000000 -1.0000000  0.0000000 )
                  (  0.0000000  0.0000000  1.0000000 )


      isym = 28     inv. 180 deg rotation - cart. axis [1,0,0]   

 cryst.   s(28) = (    -1          0          0      )
                  (     0          1          0      )
                  (     0          0          1      )

 cart.    s(28) = ( -1.0000000  0.0000000  0.0000000 )
                  (  0.0000000  1.0000000  0.0000000 )
                  (  0.0000000  0.0000000  1.0000000 )


      isym = 29     inv. 180 deg rotation - cart. axis [1,1,0]   

 cryst.   s(29) = (     0         -1          0      )
                  (    -1          0          0      )
                  (     0          0          1      )

 cart.    s(29) = (  0.0000000 -1.0000000  0.0000000 )
                  ( -1.0000000  0.0000000  0.0000000 )
                  (  0.0000000  0.0000000  1.0000000 )


      isym = 30     inv. 180 deg rotation - cart. axis [1,-1,0]  

 cryst.   s(30) = (     0          1          0      )
                  (     1          0          0      )
                  (     0          0          1      )

 cart.    s(30) = (  0.0000000  1.0000000  0.0000000 )
                  (  1.0000000  0.0000000  0.0000000 )
                  (  0.0000000  0.0000000  1.0000000 )


      isym = 31     inv.  90 deg rotation - cart. axis [0,0,-1]  

 cryst.   s(31) = (     0          1          0      )
                  (    -1          0          0      )
                  (     0          0         -1      )

 cart.    s(31) = (  0.0000000 -1.0000000  0.0000000 )
                  (  1.0000000  0.0000000  0.0000000 )
                  (  0.0000000  0.0000000 -1.0000000 )


      isym = 32     inv.  90 deg rotation - cart. axis [0,0,1]   

 cryst.   s(32) = (     0         -1          0      )
                  (     1          0          0      )
                  (     0          0         -1      )

 cart.    s(32) = (  0.0000000  1.0000000  0.0000000 )
                  ( -1.0000000  0.0000000  0.0000000 )
                  (  0.0000000  0.0000000 -1.0000000 )


      isym = 33     inv. 180 deg rotation - cart. axis [1,0,1]   

 cryst.   s(33) = (     0          0         -1      )
                  (     0          1          0      )
                  (    -1          0          0      )

 cart.    s(33) = (  0.0000000  0.0000000 -1.0000000 )
                  (  0.0000000  1.0000000  0.0000000 )
                  ( -1.0000000  0.0000000  0.0000000 )


      isym = 34     inv. 180 deg rotation - cart. axis [-1,0,1]  

 cryst.   s(34) = (     0          0          1      )
                  (     0          1          0      )
                  (     1          0          0      )

 cart.    s(34) = (  0.0000000  0.0000000  1.0000000 )
                  (  0.0000000  1.0000000  0.0000000 )
                  (  1.0000000  0.0000000  0.0000000 )


      isym = 35     inv.  90 deg rotation - cart. axis [0,1,0]   

 cryst.   s(35) = (     0          0          1      )
                  (     0         -1          0      )
                  (    -1          0          0      )

 cart.    s(35) = (  0.0000000  0.0000000 -1.0000000 )
                  (  0.0000000 -1.0000000  0.0000000 )
                  (  1.0000000  0.0000000  0.0000000 )


      isym = 36     inv.  90 deg rotation - cart. axis [0,-1,0]  

 cryst.   s(36) = (     0          0         -1      )
                  (     0         -1          0      )
                  (     1          0          0      )

 cart.    s(36) = (  0.0000000  0.0000000  1.0000000 )
                  (  0.0000000 -1.0000000  0.0000000 )
                  ( -1.0000000  0.0000000  0.0000000 )


      isym = 37     inv. 180 deg rotation - cart. axis [0,1,1]   

 cryst.   s(37) = (     1          0          0      )
                  (     0          0         -1      )
                  (     0         -1          0      )

 cart.    s(37) = (  1.0000000  0.0000000  0.0000000 )
                  (  0.0000000  0.0000000 -1.0000000 )
                  (  0.0000000 -1.0000000  0.0000000 )


      isym = 38     inv. 180 deg rotation - cart. axis [0,1,-1]  

 cryst.   s(38) = (     1          0          0      )
                  (     0          0          1      )
                  (     0          1          0      )

 cart.    s(38) = (  1.0000000  0.0000000  0.0000000 )
                  (  0.0000000  0.0000000  1.0000000 )
                  (  0.0000000  1.0000000  0.0000000 )


      isym = 39     inv.  90 deg rotation - cart. axis [-1,0,0]  

 cryst.   s(39) = (    -1          0          0      )
                  (     0          0          1      )
                  (     0         -1          0      )

 cart.    s(39) = ( -1.0000000  0.0000000  0.0000000 )
                  (  0.0000000  0.0000000 -1.0000000 )
                  (  0.0000000  1.0000000  0.0000000 )


      isym = 40     inv.  90 deg rotation - cart. axis [1,0,0]   

 cryst.   s(40) = (    -1          0          0      )
                  (     0          0         -1      )
                  (     0          1          0      )

 cart.    s(40) = ( -1.0000000  0.0000000  0.0000000 )
                  (  0.0000000  0.0000000  1.0000000 )
                  (  0.0000000 -1.0000000  0.0000000 )


      isym = 41     inv. 120 deg rotation - cart. axis [-1,-1,-1]

 cryst.   s(41) = (     0          0         -1      )
                  (    -1          0          0      )
                  (     0         -1          0      )

 cart.    s(41) = (  0.0000000 -1.0000000  0.0000000 )
                  (  0.0000000  0.0000000 -1.0000000 )
                  ( -1.0000000  0.0000000  0.0000000 )


      isym = 42     inv. 120 deg rotation - cart. axis [-1,1,1]  

 cryst.   s(42) = (     0          0          1      )
                  (     1          0          0      )
                  (     0         -1          0      )

 cart.    s(42) = (  0.0000000  1.0000000  0.0000000 )
                  (  0.0000000  0.0000000 -1.0000000 )
                  (  1.0000000  0.0000000  0.0000000 )


      isym = 43     inv. 120 deg rotation - cart. axis [1,1,-1]  

 cryst.   s(43) = (     0          0          1      )
                  (    -1          0          0      )
                  (     0          1          0      )

 cart.    s(43) = (  0.0000000 -1.0000000  0.0000000 )
                  (  0.0000000  0.0000000  1.0000000 )
                  (  1.0000000  0.0000000  0.0000000 )


      isym = 44     inv. 120 deg rotation - cart. axis [1,-1,1]  

 cryst.   s(44) = (     0          0         -1      )
                  (     1          0          0      )
                  (     0          1          0      )

 cart.    s(44) = (  0.0000000  1.0000000  0.0000000 )
                  (  0.0000000  0.0000000  1.0000000 )
                  ( -1.0000000  0.0000000  0.0000000 )


      isym = 45     inv. 120 deg rotation - cart. axis [1,1,1]   

 cryst.   s(45) = (     0         -1          0      )
                  (     0          0         -1      )
                  (    -1          0          0      )

 cart.    s(45) = (  0.0000000  0.0000000 -1.0000000 )
                  ( -1.0000000  0.0000000  0.0000000 )
                  (  0.0000000 -1.0000000  0.0000000 )


      isym = 46     inv. 120 deg rotation - cart. axis [-1,1,-1] 

 cryst.   s(46) = (     0          1          0      )
                  (     0          0          1      )
                  (    -1          0          0      )

 cart.    s(46) = (  0.0000000  0.0000000 -1.0000000 )
                  (  1.0000000  0.0000000  0.0000000 )
                  (  0.0000000  1.0000000  0.0000000 )


      isym = 47     inv. 120 deg rotation - cart. axis [1,-1,-1] 

 cryst.   s(47) = (     0          1          0      )
                  (     0          0         -1      )
                  (     1          0          0      )

 cart.    s(47) = (  0.0000000  0.0000000  1.0000000 )
                  (  1.0000000  0.0000000  0.0000000 )
                  (  0.0000000 -1.0000000  0.0000000 )


      isym = 48     inv. 120 deg rotation - cart. axis [-1,-1,1] 

 cryst.   s(48) = (     0         -1          0      )
                  (     0          0          1      )
                  (     1          0          0      )

 cart.    s(48) = (  0.0000000  0.0000000  1.0000000 )
                  ( -1.0000000  0.0000000  0.0000000 )
                  (  0.0000000  1.0000000  0.0000000 )


     point group O_h (m-3m) 
     there are 10 classes
     the character table:

       E     8C3   3C2   6C4   6C2'  i     8S6   3s_h  6S4   6s_d 
A_1g   1.00  1.00  1.00  1.00  1.00  1.00  1.00  1.00  1.00  1.00
A_2g   1.00  1.00  1.00 -1.00 -1.00  1.00  1.00  1.00 -1.00 -1.00
E_g    2.00 -1.00  2.00  0.00  0.00  2.00 -1.00  2.00  0.00  0.00
T_1g   3.00  0.00 -1.00  1.00 -1.00  3.00  0.00 -1.00  1.00 -1.00
T_2g   3.00  0.00 -1.00 -1.00  1.00  3.00  0.00 -1.00 -1.00  1.00
A_1u   1.00  1.00  1.00  1.00  1.00 -1.00 -1.00 -1.00 -1.00 -1.00
A_2u   1.00  1.00  1.00 -1.00 -1.00 -1.00 -1.00 -1.00  1.00  1.00
E_u    2.00 -1.00  2.00  0.00  0.00 -2.00  1.00 -2.00  0.00  0.00
T_1u   3.00  0.00 -1.00  1.00 -1.00 -3.00  0.00  1.00 -1.00  1.00
T_2u   3.00  0.00 -1.00 -1.00  1.00 -3.00  0.00  1.00  1.00 -1.00

     the symmetry operations in each class and the name of the first element:

     E        1
          identity                                               
     8C3     17   19   20   18   24   21   22   23
          120 deg rotation - cart. axis [-1,-1,-1]               
     3C2      2    4    3
          180 deg rotation - cart. axis [0,0,1]                  
     6C4      7    8   15   16   12   11
           90 deg rotation - cart. axis [0,0,-1]                 
     6C2'     5    6   14   13   10    9
          180 deg rotation - cart. axis [1,1,0]                  
     i       25
          inversion                                              
     8S6     41   43   44   42   48   45   46   47
          inv. 120 deg rotation - cart. axis [-1,-1,-1]          
     3s_h    26   28   27
          inv. 180 deg rotation - cart. axis [0,0,1]             
     6S4     31   32   39   40   36   35
          inv.  90 deg rotation - cart. axis [0,0,-1]            
     6s_d    29   30   38   37   34   33
          inv. 180 deg rotation - cart. axis [1,1,0]             

   Cartesian axes

     site n.     atom                  positions (alat units)
         1        Mo     tau(   1) = (   7.5000000   7.5000000   7.5000000  )

   Crystallographic axes

     site n.     atom                  positions (cryst. coord.)
         1        Mo     tau(   1) = (  7.5000000  7.5000000  7.5000000  )

     number of k points=     1  Gaussian smearing, width (Ry)=  0.0050
                       cart. coord. in units 2pi/alat
        k(    1) = (   0.0000000   0.0000000   0.0000000), wk =   1.0000000

                       cryst. coord.
        k(    1) = (   0.0000000   0.0000000   0.0000000), wk =   1.0000000

     Dense  grid:  1259131 G-vectors     FFT dimensions: ( 180, 180, 180)

     Smooth grid:  1100711 G-vectors     FFT dimensions: ( 162, 162, 162)

     Dynamical RAM for                 wfc:      29.39 MB

     Dynamical RAM for     wfc (w. buffer):      88.18 MB

     Dynamical RAM for           str. fact:      19.21 MB

     Dynamical RAM for           local pot:       0.00 MB

     Dynamical RAM for          nlocal pot:      37.79 MB

     Dynamical RAM for                qrad:       1.50 MB

     Dynamical RAM for          rho,v,vnew:     382.24 MB

     Dynamical RAM for               rhoin:     127.41 MB

     Dynamical RAM for            rho*nmix:     614.81 MB

     Dynamical RAM for           G-vectors:      80.45 MB

     Dynamical RAM for          h,s,v(r/c):       0.02 MB

     Dynamical RAM for          <psi|beta>:       0.00 MB

     Dynamical RAM for                 psi:      58.79 MB

     Dynamical RAM for                hpsi:      58.79 MB

     Dynamical RAM for      wfcinit/wfcrot:      58.79 MB

     Estimated static dynamical RAM per process >       1.02 GB

     Estimated max dynamical RAM per process >       1.73 GB
     Generating pointlists ...
     new r_m :   0.4125 (alat units) 11.6927 (a.u.) for type    1

     Initial potential from superposition of free atoms

     starting charge      13.9990, renormalised to      14.0000

     negative rho (up, down):  1.607E-05 1.607E-05
     Starting wfcs are   10 randomized atomic wfcs +    4 random wfcs

     total cpu time spent up to now is        6.4 secs

     Self-consistent Calculation
[tb_dev] Currently allocated     5.90E-01 Mbytes, locked:    0 /   4
[tb_pin] Currently allocated     0.00E+00 Mbytes, locked:    0 /   0

     iteration #  1     ecut=    80.00 Ry     beta= 0.40
     Davidson diagonalization with overlap

---- Real-time Memory Report at c_bands before calling an iterative solver
          1454 MiB given to the printing process from OS
             0 MiB allocation reported by mallinfo(arena+hblkhd)
         16260 MiB available memory on the node where the printing process lives
     GPU memory used/free/total (MiB): 4974 / 6939 / 11914
------------------
     ethr =  1.00E-02,  avg # of iterations =  9.5

     negative rho (up, down):  5.740E-07 9.640E-06

     total cpu time spent up to now is        9.1 secs

     total energy              =    -136.55844732 Ry
     estimated scf accuracy    <       0.24841159 Ry

     total magnetization       =     6.00 Bohr mag/cell
     absolute magnetization    =     6.00 Bohr mag/cell
[tb_dev] Currently allocated     3.81E-06 Mbytes, locked:    0 /   1
[tb_pin] Currently allocated     0.00E+00 Mbytes, locked:    0 /   0

     iteration #  2     ecut=    80.00 Ry     beta= 0.40
     Davidson diagonalization with overlap

---- Real-time Memory Report at c_bands before calling an iterative solver
          1713 MiB given to the printing process from OS
             0 MiB allocation reported by mallinfo(arena+hblkhd)
         16076 MiB available memory on the node where the printing process lives
     GPU memory used/free/total (MiB): 5350 / 6563 / 11914
------------------
     ethr =  1.77E-03,  avg # of iterations =  1.5

     negative rho (up, down):  3.089E-08 5.161E-06

     total cpu time spent up to now is       11.2 secs

     total energy              =    -136.67684843 Ry
     estimated scf accuracy    <       0.04998943 Ry

     total magnetization       =     6.00 Bohr mag/cell
     absolute magnetization    =     6.00 Bohr mag/cell
[tb_dev] Currently allocated     3.81E-06 Mbytes, locked:    0 /   1
[tb_pin] Currently allocated     0.00E+00 Mbytes, locked:    0 /   0

     iteration #  3     ecut=    80.00 Ry     beta= 0.40
     Davidson diagonalization with overlap

---- Real-time Memory Report at c_bands before calling an iterative solver
          1781 MiB given to the printing process from OS
             0 MiB allocation reported by mallinfo(arena+hblkhd)
         15984 MiB available memory on the node where the printing process lives
     GPU memory used/free/total (MiB): 5350 / 6563 / 11914
------------------
     ethr =  3.57E-04,  avg # of iterations =  3.0

     negative rho (up, down):  1.278E-10 3.456E-06

     total cpu time spent up to now is       13.5 secs

     total energy              =    -136.69832231 Ry
     estimated scf accuracy    <       0.00633540 Ry

     total magnetization       =     6.00 Bohr mag/cell
     absolute magnetization    =     6.00 Bohr mag/cell
[tb_dev] Currently allocated     3.81E-06 Mbytes, locked:    0 /   1
[tb_pin] Currently allocated     0.00E+00 Mbytes, locked:    0 /   0

     iteration #  4     ecut=    80.00 Ry     beta= 0.40
     Davidson diagonalization with overlap

---- Real-time Memory Report at c_bands before calling an iterative solver
          1896 MiB given to the printing process from OS
             0 MiB allocation reported by mallinfo(arena+hblkhd)
         15929 MiB available memory on the node where the printing process lives
     GPU memory used/free/total (MiB): 5350 / 6563 / 11914
------------------
     ethr =  4.53E-05,  avg # of iterations =  6.5

     negative rho (up, down):  4.695E-10 2.101E-06

     total cpu time spent up to now is       16.2 secs

     total energy              =    -136.69887587 Ry
     estimated scf accuracy    <       0.00006559 Ry

     total magnetization       =     6.00 Bohr mag/cell
     absolute magnetization    =     6.00 Bohr mag/cell
[tb_dev] Currently allocated     3.81E-06 Mbytes, locked:    0 /   1
[tb_pin] Currently allocated     0.00E+00 Mbytes, locked:    0 /   0

     iteration #  5     ecut=    80.00 Ry     beta= 0.40
     Davidson diagonalization with overlap

---- Real-time Memory Report at c_bands before calling an iterative solver
          2030 MiB given to the printing process from OS
             0 MiB allocation reported by mallinfo(arena+hblkhd)
         15855 MiB available memory on the node where the printing process lives
     GPU memory used/free/total (MiB): 5350 / 6563 / 11914
------------------
     ethr =  4.68E-07,  avg # of iterations =  8.0

     negative rho (up, down):  4.601E-09 1.418E-04

     total cpu time spent up to now is       19.4 secs

     total energy              =    -136.70527342 Ry
     estimated scf accuracy    <       0.00000983 Ry

     total magnetization       =     6.00 Bohr mag/cell
     absolute magnetization    =     6.00 Bohr mag/cell
[tb_dev] Currently allocated     3.81E-06 Mbytes, locked:    0 /   1
[tb_pin] Currently allocated     0.00E+00 Mbytes, locked:    0 /   0

     iteration #  6     ecut=    80.00 Ry     beta= 0.40
     Davidson diagonalization with overlap

---- Real-time Memory Report at c_bands before calling an iterative solver
          2165 MiB given to the printing process from OS
             0 MiB allocation reported by mallinfo(arena+hblkhd)
         15794 MiB available memory on the node where the printing process lives
     GPU memory used/free/total (MiB): 5350 / 6563 / 11914
------------------
     ethr =  7.02E-08,  avg # of iterations =  7.5

     negative rho (up, down):  6.684E-10 4.034E-05

     total cpu time spent up to now is       23.0 secs

     total energy              =    -136.70304111 Ry
     estimated scf accuracy    <       0.00011594 Ry

     total magnetization       =     6.00 Bohr mag/cell
     absolute magnetization    =     6.00 Bohr mag/cell
[tb_dev] Currently allocated     3.81E-06 Mbytes, locked:    0 /   1
[tb_pin] Currently allocated     0.00E+00 Mbytes, locked:    0 /   0

     iteration #  7     ecut=    80.00 Ry     beta= 0.40
     Davidson diagonalization with overlap

---- Real-time Memory Report at c_bands before calling an iterative solver
          2301 MiB given to the printing process from OS
             0 MiB allocation reported by mallinfo(arena+hblkhd)
         15750 MiB available memory on the node where the printing process lives
     GPU memory used/free/total (MiB): 5350 / 6563 / 11914
------------------
     ethr =  7.02E-08,  avg # of iterations =  5.0

     negative rho (up, down):  7.326E-11 4.784E-05

     total cpu time spent up to now is       26.2 secs

     total energy              =    -136.70334324 Ry
     estimated scf accuracy    <       0.00002331 Ry

     total magnetization       =     6.00 Bohr mag/cell
     absolute magnetization    =     6.00 Bohr mag/cell
[tb_dev] Currently allocated     3.81E-06 Mbytes, locked:    0 /   1
[tb_pin] Currently allocated     0.00E+00 Mbytes, locked:    0 /   0

     iteration #  8     ecut=    80.00 Ry     beta= 0.40
     Davidson diagonalization with overlap

---- Real-time Memory Report at c_bands before calling an iterative solver
          2437 MiB given to the printing process from OS
             0 MiB allocation reported by mallinfo(arena+hblkhd)
         15704 MiB available memory on the node where the printing process lives
     GPU memory used/free/total (MiB): 5350 / 6563 / 11914
------------------
     ethr =  7.02E-08,  avg # of iterations =  1.5

     negative rho (up, down):  1.245E-08 1.178E-06

     total cpu time spent up to now is       29.1 secs

     total energy              =    -136.69981451 Ry
     estimated scf accuracy    <       0.00002227 Ry

     total magnetization       =     6.00 Bohr mag/cell
     absolute magnetization    =     6.00 Bohr mag/cell
[tb_dev] Currently allocated     3.81E-06 Mbytes, locked:    0 /   1
[tb_pin] Currently allocated     0.00E+00 Mbytes, locked:    0 /   0

     iteration #  9     ecut=    80.00 Ry     beta= 0.40
     Davidson diagonalization with overlap

---- Real-time Memory Report at c_bands before calling an iterative solver
          2573 MiB given to the printing process from OS
             0 MiB allocation reported by mallinfo(arena+hblkhd)
         15652 MiB available memory on the node where the printing process lives
     GPU memory used/free/total (MiB): 5350 / 6563 / 11914
------------------
     ethr =  7.02E-08,  avg # of iterations =  8.0

     negative rho (up, down):  8.336E-09 4.353E-07

     total cpu time spent up to now is       33.1 secs

     total energy              =    -136.69945679 Ry
     estimated scf accuracy    <       0.00000834 Ry

     total magnetization       =     6.00 Bohr mag/cell
     absolute magnetization    =     6.00 Bohr mag/cell
[tb_dev] Currently allocated     3.81E-06 Mbytes, locked:    0 /   1
[tb_pin] Currently allocated     0.00E+00 Mbytes, locked:    0 /   0

     iteration # 10     ecut=    80.00 Ry     beta= 0.40
     Davidson diagonalization with overlap

---- Real-time Memory Report at c_bands before calling an iterative solver
          2707 MiB given to the printing process from OS
             0 MiB allocation reported by mallinfo(arena+hblkhd)
         15640 MiB available memory on the node where the printing process lives
     GPU memory used/free/total (MiB): 5350 / 6563 / 11914
------------------
     ethr =  5.96E-08,  avg # of iterations =  6.0

     negative rho (up, down):  5.994E-09 1.818E-07

     total cpu time spent up to now is       36.5 secs

     total energy              =    -136.69922939 Ry
     estimated scf accuracy    <       0.00001297 Ry

     total magnetization       =     6.00 Bohr mag/cell
     absolute magnetization    =     6.00 Bohr mag/cell
[tb_dev] Currently allocated     3.81E-06 Mbytes, locked:    0 /   1
[tb_pin] Currently allocated     0.00E+00 Mbytes, locked:    0 /   0

     iteration # 11     ecut=    80.00 Ry     beta= 0.40
     Davidson diagonalization with overlap

---- Real-time Memory Report at c_bands before calling an iterative solver
          2708 MiB given to the printing process from OS
             0 MiB allocation reported by mallinfo(arena+hblkhd)
         15518 MiB available memory on the node where the printing process lives
     GPU memory used/free/total (MiB): 5350 / 6563 / 11914
------------------
     ethr =  5.96E-08,  avg # of iterations =  5.5

     negative rho (up, down):  4.759E-09 3.483E-07

     total cpu time spent up to now is       40.0 secs

     total energy              =    -136.69953793 Ry
     estimated scf accuracy    <       0.00001556 Ry

     total magnetization       =     6.00 Bohr mag/cell
     absolute magnetization    =     6.00 Bohr mag/cell
[tb_dev] Currently allocated     3.81E-06 Mbytes, locked:    0 /   1
[tb_pin] Currently allocated     0.00E+00 Mbytes, locked:    0 /   0

     iteration # 12     ecut=    80.00 Ry     beta= 0.40
     Davidson diagonalization with overlap

---- Real-time Memory Report at c_bands before calling an iterative solver
          2708 MiB given to the printing process from OS
             0 MiB allocation reported by mallinfo(arena+hblkhd)
         15514 MiB available memory on the node where the printing process lives
     GPU memory used/free/total (MiB): 5350 / 6563 / 11914
------------------
     ethr =  5.96E-08,  avg # of iterations =  5.5

     negative rho (up, down):  7.020E-10 5.319E-06

     total cpu time spent up to now is       43.4 secs

     total energy              =    -136.70088713 Ry
     estimated scf accuracy    <       0.00000903 Ry

     total magnetization       =     6.00 Bohr mag/cell
     absolute magnetization    =     6.00 Bohr mag/cell
[tb_dev] Currently allocated     3.81E-06 Mbytes, locked:    0 /   1
[tb_pin] Currently allocated     0.00E+00 Mbytes, locked:    0 /   0

     iteration # 13     ecut=    80.00 Ry     beta= 0.40
     Davidson diagonalization with overlap

---- Real-time Memory Report at c_bands before calling an iterative solver
          2708 MiB given to the printing process from OS
             0 MiB allocation reported by mallinfo(arena+hblkhd)
         15667 MiB available memory on the node where the printing process lives
     GPU memory used/free/total (MiB): 5350 / 6563 / 11914
------------------
     ethr =  5.96E-08,  avg # of iterations =  6.5

     negative rho (up, down):  8.820E-11 5.874E-06

     total cpu time spent up to now is       47.2 secs

     total energy              =    -136.70099061 Ry
     estimated scf accuracy    <       0.00000627 Ry

     total magnetization       =     6.00 Bohr mag/cell
     absolute magnetization    =     6.00 Bohr mag/cell
[tb_dev] Currently allocated     3.81E-06 Mbytes, locked:    0 /   1
[tb_pin] Currently allocated     0.00E+00 Mbytes, locked:    0 /   0

     iteration # 14     ecut=    80.00 Ry     beta= 0.40
     Davidson diagonalization with overlap

---- Real-time Memory Report at c_bands before calling an iterative solver
          2708 MiB given to the printing process from OS
             0 MiB allocation reported by mallinfo(arena+hblkhd)
         15548 MiB available memory on the node where the printing process lives
     GPU memory used/free/total (MiB): 5350 / 6563 / 11914
------------------
     ethr =  4.48E-08,  avg # of iterations =  1.5

     negative rho (up, down):  1.127E-11 5.376E-06

     total cpu time spent up to now is       50.2 secs

     total energy              =    -136.70092067 Ry
     estimated scf accuracy    <       0.00001088 Ry

     total magnetization       =     6.00 Bohr mag/cell
     absolute magnetization    =     6.00 Bohr mag/cell
[tb_dev] Currently allocated     3.81E-06 Mbytes, locked:    0 /   1
[tb_pin] Currently allocated     0.00E+00 Mbytes, locked:    0 /   0

     iteration # 15     ecut=    80.00 Ry     beta= 0.40
     Davidson diagonalization with overlap

---- Real-time Memory Report at c_bands before calling an iterative solver
          2708 MiB given to the printing process from OS
             0 MiB allocation reported by mallinfo(arena+hblkhd)
         15488 MiB available memory on the node where the printing process lives
     GPU memory used/free/total (MiB): 5350 / 6563 / 11914
------------------
     ethr =  4.48E-08,  avg # of iterations =  1.0

     negative rho (up, down):  6.047E-10 1.891E-06

     total cpu time spent up to now is       53.2 secs

     total energy              =    -136.70024607 Ry
     estimated scf accuracy    <       0.00000746 Ry

     total magnetization       =     6.00 Bohr mag/cell
     absolute magnetization    =     6.00 Bohr mag/cell
[tb_dev] Currently allocated     3.81E-06 Mbytes, locked:    0 /   1
[tb_pin] Currently allocated     0.00E+00 Mbytes, locked:    0 /   0

     iteration # 16     ecut=    80.00 Ry     beta= 0.40
     Davidson diagonalization with overlap

---- Real-time Memory Report at c_bands before calling an iterative solver
          2708 MiB given to the printing process from OS
             0 MiB allocation reported by mallinfo(arena+hblkhd)
         15512 MiB available memory on the node where the printing process lives
     GPU memory used/free/total (MiB): 5350 / 6563 / 11914
------------------
     ethr =  4.48E-08,  avg # of iterations =  4.5

     negative rho (up, down):  3.302E-10 1.754E-06

     total cpu time spent up to now is       56.6 secs

     total energy              =    -136.70021440 Ry
     estimated scf accuracy    <       0.00000129 Ry

     total magnetization       =     6.00 Bohr mag/cell
     absolute magnetization    =     6.00 Bohr mag/cell
[tb_dev] Currently allocated     3.81E-06 Mbytes, locked:    0 /   1
[tb_pin] Currently allocated     0.00E+00 Mbytes, locked:    0 /   0

     iteration # 17     ecut=    80.00 Ry     beta= 0.40
     Davidson diagonalization with overlap

---- Real-time Memory Report at c_bands before calling an iterative solver
          2708 MiB given to the printing process from OS
             0 MiB allocation reported by mallinfo(arena+hblkhd)
         15617 MiB available memory on the node where the printing process lives
     GPU memory used/free/total (MiB): 5350 / 6563 / 11914
------------------
     ethr =  9.21E-09,  avg # of iterations =  1.5

     negative rho (up, down):  3.156E-10 1.503E-06

     total cpu time spent up to now is       59.6 secs

     total energy              =    -136.70014217 Ry
     estimated scf accuracy    <       0.00000191 Ry

     total magnetization       =     6.00 Bohr mag/cell
     absolute magnetization    =     6.00 Bohr mag/cell
[tb_dev] Currently allocated     3.81E-06 Mbytes, locked:    0 /   1
[tb_pin] Currently allocated     0.00E+00 Mbytes, locked:    0 /   0

     iteration # 18     ecut=    80.00 Ry     beta= 0.40
     Davidson diagonalization with overlap

---- Real-time Memory Report at c_bands before calling an iterative solver
          2708 MiB given to the printing process from OS
             0 MiB allocation reported by mallinfo(arena+hblkhd)
         15599 MiB available memory on the node where the printing process lives
     GPU memory used/free/total (MiB): 5350 / 6563 / 11914
------------------
     ethr =  9.21E-09,  avg # of iterations =  1.5

     negative rho (up, down):  2.837E-10 1.321E-06

     total cpu time spent up to now is       62.7 secs

     total energy              =    -136.70008801 Ry
     estimated scf accuracy    <       0.00000182 Ry

     total magnetization       =     6.00 Bohr mag/cell
     absolute magnetization    =     6.00 Bohr mag/cell
[tb_dev] Currently allocated     3.81E-06 Mbytes, locked:    0 /   1
[tb_pin] Currently allocated     0.00E+00 Mbytes, locked:    0 /   0

     iteration # 19     ecut=    80.00 Ry     beta= 0.40
     Davidson diagonalization with overlap

---- Real-time Memory Report at c_bands before calling an iterative solver
          2708 MiB given to the printing process from OS
             0 MiB allocation reported by mallinfo(arena+hblkhd)
         15505 MiB available memory on the node where the printing process lives
     GPU memory used/free/total (MiB): 5350 / 6563 / 11914
------------------
     ethr =  9.21E-09,  avg # of iterations =  1.5

     negative rho (up, down):  0.000E+00 8.715E-07

     total cpu time spent up to now is       65.7 secs

     total energy              =    -136.69992318 Ry
     estimated scf accuracy    <       0.00000127 Ry

     total magnetization       =     6.00 Bohr mag/cell
     absolute magnetization    =     6.00 Bohr mag/cell
[tb_dev] Currently allocated     3.81E-06 Mbytes, locked:    0 /   1
[tb_pin] Currently allocated     0.00E+00 Mbytes, locked:    0 /   0

     iteration # 20     ecut=    80.00 Ry     beta= 0.40
     Davidson diagonalization with overlap

---- Real-time Memory Report at c_bands before calling an iterative solver
          2708 MiB given to the printing process from OS
             0 MiB allocation reported by mallinfo(arena+hblkhd)
         15529 MiB available memory on the node where the printing process lives
     GPU memory used/free/total (MiB): 5350 / 6563 / 11914
------------------
     ethr =  9.09E-09,  avg # of iterations =  4.0
 
     Magnetic moment per site  (integrated on atomic sphere of radius R)
     atom   1 (R=0.413)  charge= 13.9999  magn=  5.9999

     total cpu time spent up to now is       67.8 secs

     End of self-consistent calculation

 ------ SPIN UP ------------


          k = 0.0000 0.0000 0.0000 (137481 PWs)   bands (ev):

   -64.5367 -38.9415 -38.9415 -38.9415  -4.5042  -4.5042  -4.5042  -4.5042
    -4.5042  -4.4794  -1.2283  -1.2283  -1.2283  -0.1920

     occupation numbers 
     1.0000   1.0000   1.0000   1.0000   1.0000   1.0000   1.0000   1.0000
     1.0000   1.0000   0.0000   0.0000   0.0000   0.0000

 ------ SPIN DOWN ----------


          k = 0.0000 0.0000 0.0000 (137481 PWs)   bands (ev):

   -62.1963 -35.9404 -35.9404 -35.9404  -1.6460  -0.9108  -0.9108  -0.9106
    -0.9106  -0.9106   0.0727   0.3662   0.3662   0.3662

     occupation numbers 
     1.0000   1.0000   1.0000   1.0000   0.0000   0.0000   0.0000   0.0000
     0.0000   0.0000   0.0000   0.0000   0.0000   0.0000

     the spin up/dw Fermi energies are    -3.0950  -32.0853 ev

!    total energy              =    -136.69890473 Ry
     estimated scf accuracy    <       0.00000057 Ry
     smearing contrib. (-TS)   =      -0.00000000 Ry
     internal energy E=F+TS    =    -136.69890473 Ry

     The total energy is F=E-TS. E is the sum of the following terms:
     one-electron contribution =    -195.46184465 Ry
     hartree contribution      =      94.01481991 Ry
     xc contribution           =     -15.63315327 Ry
     ewald contribution        =     -19.61872671 Ry

     total magnetization       =     6.00 Bohr mag/cell
     absolute magnetization    =     6.00 Bohr mag/cell

     convergence has been achieved in  20 iterations

     Writing all to output data dir ./../tmp/mo_atom.save/ :
     XML data file, charge density, pseudopotentials, collected wavefunctions
 
     init_run     :      5.89s CPU      6.29s WALL (       1 calls)
     electrons    :     56.68s CPU     61.59s WALL (       1 calls)

     Called by init_run:
     wfcinit      :      0.33s CPU      0.38s WALL (       1 calls)
     wfcinit:atom :      0.00s CPU      0.00s WALL (       2 calls)
     wfcinit:wfcr :      0.31s CPU      0.34s WALL (       2 calls)
     potinit      :      4.90s CPU      5.14s WALL (       1 calls)
     hinit0       :      0.34s CPU      0.40s WALL (       1 calls)

     Called by electrons:
     c_bands      :     18.03s CPU     18.13s WALL (      20 calls)
     sum_band     :      4.33s CPU      4.33s WALL (      20 calls)
     v_of_rho     :      9.16s CPU      9.80s WALL (      21 calls)
     v_h          :      0.98s CPU      1.56s WALL (      21 calls)
     v_xc         :      8.18s CPU      8.24s WALL (      21 calls)
     mix_rho      :     15.46s CPU     17.97s WALL (      20 calls)

     Called by c_bands:
     init_us_2    :      0.16s CPU      0.17s WALL (      82 calls)
     regterg      :     17.13s CPU     17.15s WALL (      40 calls)

     Called by sum_band:
     sum_band:wei :      0.00s CPU      0.00s WALL (      20 calls)
     sum_band:loo :      2.28s CPU      2.28s WALL (      20 calls)
     sum_band:buf :      0.34s CPU      0.34s WALL (      40 calls)
     sum_band:ini :      0.08s CPU      0.08s WALL (      40 calls)

     Called by *egterg:
     rdiaghg      :      0.17s CPU      0.18s WALL (     219 calls)
                                        0.18s GPU  (     219 calls)
     regterg:over :      1.34s CPU      1.34s WALL (     179 calls)
     regterg:upda :      0.44s CPU      0.45s WALL (     179 calls)
     regterg:last :      0.70s CPU      0.70s WALL (     110 calls)
     h_psi        :     13.74s CPU     13.78s WALL (     221 calls)
                                       13.78s GPU  (     221 calls)
     g_psi        :      0.00s CPU      0.13s WALL (     179 calls)
                                        0.13s GPU  (     179 calls)

     Called by h_psi:
     h_psi:calbec :      0.04s CPU      0.90s WALL (     221 calls)
                                        0.90s GPU  (     221 calls)
     vloc_psi     :     12.30s CPU     12.31s WALL (     221 calls)
                                       12.31s GPU  (     221 calls)
     add_vuspsi   :      0.01s CPU      0.51s WALL (     221 calls)
                                        0.51s GPU  (     221 calls)

     General routines
     calbec       :      0.04s CPU      0.06s WALL (     221 calls)
     fft          :      5.96s CPU      8.62s WALL (     333 calls)
                                        2.64s GPU  (     291 calls)
     ffts         :      4.28s CPU      4.42s WALL (      62 calls)
                                        0.12s GPU  (      20 calls)
     fftw         :      0.01s CPU     12.87s WALL (     722 calls)
                                       12.87s GPU  (     722 calls)
     interpolate  :     12.05s CPU     13.79s WALL (      42 calls)
 
     Parallel routines
 
     PWSCF        :   1m 2.69s CPU   1m 8.09s WALL

 
   This run was terminated on:  11:55:52  12Jul2026            

=------------------------------------------------------------------------------=
   JOB DONE.
=------------------------------------------------------------------------------=
