
     Program PWSCF v.7.4.1 starts on 12Jul2026 at 11:58:15 

     This program is part of the open-source Quantum ESPRESSO suite
     for quantum simulation of materials; please cite
         "P. Giannozzi et al., J. Phys.:Condens. Matter 21 395502 (2009);
         "P. Giannozzi et al., J. Phys.:Condens. Matter 29 465901 (2017);
         "P. Giannozzi et al., J. Chem. Phys. 152 154105 (2020);
          URL http://www.quantum-espresso.org", 
     in publications or presentations arising from this work. More details at
     http://www.quantum-espresso.org/quote

     Parallel version (MPI), running on     1 processors

     MPI processes distributed on     1 nodes
     17423 MiB available memory on the printing compute node when the environment starts
 
     Reading input from s_atom.in

     Current dimensions of program PWSCF are:
     Max number of different atomic species (ntypx) = 10
     Max number of k-points (npk) =  40000
     Max angular momentum in pseudopotentials (lmaxx) =  4

     gamma-point specific algorithms are used
     Message from routine setup:
     no reason to have ecutrho>4*ecutwfc
 
     Subspace diagonalization in iterative solution of the eigenvalue problem:
     a serial algorithm will be used

 
     G-vector sticks info
     --------------------
     sticks:   dense  smooth     PW     G-vecs:    dense   smooth      PW
     Sum       22389   20461   5129              2518261  2201421  274961
 
     Using Slab Decomposition
 


     bravais-lattice index     =            1
     lattice parameter (alat)  =      28.3459  a.u.
     unit-cell volume          =   22775.6289 (a.u.)^3
     number of atoms/cell      =            1
     number of atomic types    =            1
     number of electrons       =         6.00 (up:   4.00, down:   2.00)
     number of Kohn-Sham states=            8
     kinetic-energy cutoff     =      80.0000  Ry
     charge density cutoff     =     350.0000  Ry
     scf convergence threshold =      1.0E-08
     mixing beta               =       0.3000
     number of iterations used =            8  plain     mixing
     Exchange-correlation= PBE
                           (   1   4   3   4   0   0   0)

     GPU acceleration is ACTIVE.  1 visible GPUs per MPI rank
     GPU-aware MPI enabled


     celldm(1)=  28.345892  celldm(2)=   0.000000  celldm(3)=   0.000000
     celldm(4)=   0.000000  celldm(5)=   0.000000  celldm(6)=   0.000000

     crystal axes: (cart. coord. in units of alat)
               a(1) = (   1.000000   0.000000   0.000000 )  
               a(2) = (   0.000000   1.000000   0.000000 )  
               a(3) = (   0.000000   0.000000   1.000000 )  

     reciprocal axes: (cart. coord. in units 2 pi/alat)
               b(1) = (  1.000000  0.000000  0.000000 )  
               b(2) = (  0.000000  1.000000  0.000000 )  
               b(3) = (  0.000000  0.000000  1.000000 )  


     PseudoPot. # 1 for S  read from file:
     ./../pseudo/S_ONCV_PBE_sr.upf
     MD5 check sum: 349606e8212f885553119adf97947dd6
     Pseudo is Norm-conserving, Zval =  6.0
     Generated using ONCVPSP code by D. R. Hamann
     Using radial grid of 1146 points,  4 beta functions with: 
                l(1) =   0
                l(2) =   0
                l(3) =   1
                l(4) =   1

     atomic species   valence    mass     pseudopotential
     S                 6.00    32.06500     S ( 1.00)

     Starting magnetic structure 
     atomic species   magnetization
     S               0.000

     48 Sym. Ops., with inversion, found



   Cartesian axes

     site n.     atom                  positions (alat units)
         1        S      tau(   1) = (   7.5000000   7.5000000   7.5000000  )

     number of k points=     1  Marzari-Vanderbilt smearing, width (Ry)=  0.0050
                       cart. coord. in units 2pi/alat
        k(    1) = (   0.0000000   0.0000000   0.0000000), wk =   1.0000000

     Dense  grid:  1259131 G-vectors     FFT dimensions: ( 180, 180, 180)

     Smooth grid:  1100711 G-vectors     FFT dimensions: ( 162, 162, 162)

     Estimated max dynamical RAM per process >       1.63 GB
     Generating pointlists ...
     new r_m :   0.4125 (alat units) 11.6927 (a.u.) for type    1

     Initial potential from superposition of free atoms

     starting charge       6.0000, renormalised to       6.0000

     negative rho (up, down):  1.073E-05 1.073E-05
     Starting wfcs are    4 randomized atomic wfcs +    4 random wfcs

     total cpu time spent up to now is        6.2 secs

     Self-consistent Calculation

     iteration #  1     ecut=    80.00 Ry     beta= 0.30
     Davidson diagonalization with overlap
     ethr =  1.00E-02,  avg # of iterations =  8.0

     Threshold (ethr) on eigenvalues was too large:
     Diagonalizing with lowered threshold

     Davidson diagonalization with overlap
     ethr =  2.36E-04,  avg # of iterations =  6.0

     negative rho (up, down):  6.045E-06 6.649E-06

     total cpu time spent up to now is        9.4 secs

     total energy              =     -20.18387104 Ry
     estimated scf accuracy    <       0.01417205 Ry

     total magnetization       =     2.00 Bohr mag/cell
     absolute magnetization    =     2.00 Bohr mag/cell

     iteration #  2     ecut=    80.00 Ry     beta= 0.30
     Davidson diagonalization with overlap
     ethr =  2.36E-04,  avg # of iterations =  1.0

     negative rho (up, down):  4.226E-06 4.273E-06

     total cpu time spent up to now is       11.2 secs

     total energy              =     -20.21510272 Ry
     estimated scf accuracy    <       0.00719375 Ry

     total magnetization       =     2.00 Bohr mag/cell
     absolute magnetization    =     2.00 Bohr mag/cell

     iteration #  3     ecut=    80.00 Ry     beta= 0.30
     Davidson diagonalization with overlap
     ethr =  1.20E-04,  avg # of iterations =  2.0

     negative rho (up, down):  2.792E-06 2.528E-06

     total cpu time spent up to now is       13.2 secs

     total energy              =     -20.21588029 Ry
     estimated scf accuracy    <       0.00004713 Ry

     total magnetization       =     2.00 Bohr mag/cell
     absolute magnetization    =     2.00 Bohr mag/cell

     iteration #  4     ecut=    80.00 Ry     beta= 0.30
     Davidson diagonalization with overlap
     c_bands:  2 eigenvalues not converged
     ethr =  7.86E-07,  avg # of iterations = 19.5

     negative rho (up, down):  1.878E-06 1.660E-06

     total cpu time spent up to now is       16.6 secs

     total energy              =     -20.21592407 Ry
     estimated scf accuracy    <       0.00000182 Ry

     total magnetization       =     2.00 Bohr mag/cell
     absolute magnetization    =     2.00 Bohr mag/cell

     iteration #  5     ecut=    80.00 Ry     beta= 0.30
     Davidson diagonalization with overlap
     ethr =  3.04E-08,  avg # of iterations =  2.0

     negative rho (up, down):  1.268E-06 1.117E-06

     total cpu time spent up to now is       18.8 secs

     total energy              =     -20.21593023 Ry
     estimated scf accuracy    <       0.00000075 Ry

     total magnetization       =     2.00 Bohr mag/cell
     absolute magnetization    =     2.00 Bohr mag/cell

     iteration #  6     ecut=    80.00 Ry     beta= 0.30
     Davidson diagonalization with overlap
     ethr =  1.25E-08,  avg # of iterations =  2.0

     negative rho (up, down):  8.732E-07 7.674E-07

     total cpu time spent up to now is       21.2 secs

     total energy              =     -20.21593201 Ry
     estimated scf accuracy    <       0.00000176 Ry

     total magnetization       =     2.00 Bohr mag/cell
     absolute magnetization    =     2.00 Bohr mag/cell

     iteration #  7     ecut=    80.00 Ry     beta= 0.30
     Davidson diagonalization with overlap
     ethr =  1.25E-08,  avg # of iterations =  2.0

     negative rho (up, down):  6.013E-07 5.249E-07

     total cpu time spent up to now is       23.7 secs

     total energy              =     -20.21593255 Ry
     estimated scf accuracy    <       0.00000011 Ry

     total magnetization       =     2.00 Bohr mag/cell
     absolute magnetization    =     2.00 Bohr mag/cell

     iteration #  8     ecut=    80.00 Ry     beta= 0.30
     Davidson diagonalization with overlap
     ethr =  1.91E-09,  avg # of iterations =  2.5

     negative rho (up, down):  3.936E-07 3.420E-07

     total cpu time spent up to now is       26.5 secs

     total energy              =     -20.21593268 Ry
     estimated scf accuracy    <       0.00000001 Ry

     total magnetization       =     2.00 Bohr mag/cell
     absolute magnetization    =     2.00 Bohr mag/cell

     iteration #  9     ecut=    80.00 Ry     beta= 0.30
     Davidson diagonalization with overlap
     ethr =  1.84E-10,  avg # of iterations =  2.0
 
     Magnetic moment per site  (integrated on atomic sphere of radius R)
     atom   1 (R=0.413)  charge=  6.0000  magn=  2.0000

     total cpu time spent up to now is       28.1 secs

     End of self-consistent calculation

 ------ SPIN UP ------------


          k = 0.0000 0.0000 0.0000 (137481 PWs)   bands (ev):

   -17.9542  -7.6293  -7.6291  -7.6291  -0.4523   0.2855   0.4594   0.4595

 ------ SPIN DOWN ----------


          k = 0.0000 0.0000 0.0000 (137481 PWs)   bands (ev):

   -16.0189  -5.8922  -5.8922  -5.8922  -0.2739   0.3673   0.5299   0.5324

     the spin up/dw Fermi energies are    -3.7491   -5.8992 ev

!    total energy              =     -20.21593269 Ry
     estimated scf accuracy    <          8.9E-09 Ry
     smearing contrib. (-TS)   =      -0.00251556 Ry
     internal energy E=F+TS    =     -20.21341713 Ry

     The total energy is F=E-TS. E is the sum of the following terms:
     one-electron contribution =     -25.61038169 Ry
     hartree contribution      =      13.24946425 Ry
     xc contribution           =      -4.24906009 Ry
     ewald contribution        =      -3.60343960 Ry

     total magnetization       =     2.00 Bohr mag/cell
     absolute magnetization    =     2.00 Bohr mag/cell

     convergence has been achieved in   9 iterations

     Writing all to output data dir ./../tmp/s_atom.save/ :
     XML data file, charge density, pseudopotentials, collected wavefunctions
 
     init_run     :      5.74s CPU      6.13s WALL (       1 calls)
     electrons    :     20.16s CPU     22.02s WALL (       1 calls)

     Called by init_run:
     wfcinit      :      0.25s CPU      0.28s WALL (       1 calls)
     potinit      :      4.85s CPU      5.11s WALL (       1 calls)
     hinit0       :      0.33s CPU      0.39s WALL (       1 calls)

     Called by electrons:
     c_bands      :      6.11s CPU      6.16s WALL (      10 calls)
     sum_band     :      1.67s CPU      1.67s WALL (      10 calls)
     v_of_rho     :      4.42s CPU      4.74s WALL (      10 calls)
     mix_rho      :      3.86s CPU      4.61s WALL (      10 calls)

     Called by c_bands:
     init_us_2    :      0.04s CPU      0.05s WALL (      42 calls)
     regterg      :      5.86s CPU      5.87s WALL (      20 calls)

     Called by *egterg:
     rdiaghg      :      0.06s CPU      0.07s WALL (     112 calls)
                                        0.07s GPU  (     112 calls)
     h_psi        :      4.46s CPU      4.48s WALL (     116 calls)
                                        4.48s GPU  (     116 calls)
     g_psi        :      0.00s CPU      0.04s WALL (      94 calls)
                                        0.04s GPU  (      94 calls)

     Called by h_psi:
     h_psi:calbec :      0.04s CPU      0.49s WALL (     116 calls)
                                        0.48s GPU  (     116 calls)
     vloc_psi     :      3.85s CPU      3.86s WALL (     116 calls)
                                        3.86s GPU  (     116 calls)
     add_vuspsi   :      0.01s CPU      0.11s WALL (     116 calls)
                                        0.11s GPU  (     116 calls)

     General routines
     calbec       :      0.04s CPU      0.05s WALL (     116 calls)
     fft          :      4.09s CPU      5.38s WALL (     158 calls)
                                        1.27s GPU  (     138 calls)
     ffts         :      2.76s CPU      2.84s WALL (      30 calls)
                                        0.06s GPU  (      10 calls)
     fftw         :      0.01s CPU      3.98s WALL (     312 calls)
                                        3.98s GPU  (     312 calls)
     interpolate  :      7.69s CPU      8.54s WALL (      20 calls)
 
     Parallel routines
 
     PWSCF        :     25.99s CPU     28.31s WALL

 
   This run was terminated on:  11:58:43  12Jul2026            

=------------------------------------------------------------------------------=
   JOB DONE.
=------------------------------------------------------------------------------=
