
     Program PWSCF v.7.4.1 starts on 12Jul2026 at  0:20:47 

     This program is part of the open-source Quantum ESPRESSO suite
     for quantum simulation of materials; please cite
         "P. Giannozzi et al., J. Phys.:Condens. Matter 21 395502 (2009);
         "P. Giannozzi et al., J. Phys.:Condens. Matter 29 465901 (2017);
         "P. Giannozzi et al., J. Chem. Phys. 152 154105 (2020);
          URL http://www.quantum-espresso.org", 
     in publications or presentations arising from this work. More details at
     http://www.quantum-espresso.org/quote

     Parallel version (MPI), running on     1 processors

     MPI processes distributed on     1 nodes
     18088 MiB available memory on the printing compute node when the environment starts
 
     Reading input from scf.in

     Current dimensions of program PWSCF are:
     Max number of different atomic species (ntypx) = 10
     Max number of k-points (npk) =  40000
     Max angular momentum in pseudopotentials (lmaxx) =  4

     gamma-point specific algorithms are used
     Found identity + (  0.0000  0.3333  0.0000) symmetry
     This is a supercell, fractional translations are disabled
 
     Subspace diagonalization in iterative solution of the eigenvalue problem:
     a serial algorithm will be used

 
     G-vector sticks info
     --------------------
     sticks:   dense  smooth     PW     G-vecs:    dense   smooth      PW
     Sum        6307    6307   1573               855607   855607  106963
 
     Using Slab Decomposition
 


     bravais-lattice index     =            4
     lattice parameter (alat)  =      18.0580  a.u.
     unit-cell volume          =   10817.4320 (a.u.)^3
     number of atoms/cell      =           27
     number of atomic types    =            2
     number of electrons       =       234.00
     number of Kohn-Sham states=          140
     kinetic-energy cutoff     =      70.0000  Ry
     charge density cutoff     =     280.0000  Ry
     scf convergence threshold =      1.0E-06
     mixing beta               =       0.7000
     number of iterations used =            8  plain     mixing
     Exchange-correlation= PBE
                           (   1   4   3   4   0   0   0)

     GPU acceleration is ACTIVE.  1 visible GPUs per MPI rank
     GPU-aware MPI enabled


     GPU used by master process:

        Device Number: 0
        Device name: NVIDIA RTX A2000 12GB
        Compute capability : 86
        Ratio of single to double precision performance  : 64
        Memory Clock Rate (KHz): 6001000
        Memory Bus Width (bits): 192
        Peak Memory Bandwidth (GB/s): 288.05

     celldm(1)=  18.058034  celldm(2)=   0.000000  celldm(3)=   2.121203
     celldm(4)=   0.000000  celldm(5)=   0.000000  celldm(6)=   0.000000

     crystal axes: (cart. coord. in units of alat)
               a(1) = (   1.000000   0.000000   0.000000 )  
               a(2) = (  -0.500000   0.866025   0.000000 )  
               a(3) = (   0.000000   0.000000   2.121203 )  

     reciprocal axes: (cart. coord. in units 2 pi/alat)
               b(1) = (  1.000000  0.577350 -0.000000 )  
               b(2) = (  0.000000  1.154701  0.000000 )  
               b(3) = (  0.000000 -0.000000  0.471431 )  


     PseudoPot. # 1 for Mo read from file:
     ./../pseudo/Mo_ONCV_PBE_sr.upf
     MD5 check sum: f6cd2699259e285988a5451c48631988
     Pseudo is Norm-conserving, Zval = 14.0
     Generated using ONCVPSP code by D. R. Hamann
     Using radial grid of 1526 points,  6 beta functions with: 
                l(1) =   0
                l(2) =   0
                l(3) =   1
                l(4) =   1
                l(5) =   2
                l(6) =   2

     PseudoPot. # 2 for S  read from file:
     ./../pseudo/S_ONCV_PBE_sr.upf
     MD5 check sum: 349606e8212f885553119adf97947dd6
     Pseudo is Norm-conserving, Zval =  6.0
     Generated using ONCVPSP code by D. R. Hamann
     Using radial grid of 1146 points,  4 beta functions with: 
                l(1) =   0
                l(2) =   0
                l(3) =   1
                l(4) =   1

     atomic species   valence    mass     pseudopotential
     Mo               14.00    95.95000     Mo( 1.00)
     S                 6.00    32.06500     S ( 1.00)

      6 Sym. Ops. (no inversion) found


                                    s                        frac. trans.

      isym =  1     identity                                     

 cryst.   s( 1) = (     1          0          0      )
                  (     0          1          0      )
                  (     0          0          1      )

 cart.    s( 1) = (  1.0000000  0.0000000  0.0000000 )
                  (  0.0000000  1.0000000  0.0000000 )
                  (  0.0000000  0.0000000  1.0000000 )


      isym =  2     120 deg rotation - cryst. axis [0,0,1]       

 cryst.   s( 2) = (     0          1          0      )
                  (    -1         -1          0      )
                  (     0          0          1      )

 cart.    s( 2) = ( -0.5000000 -0.8660254  0.0000000 )
                  (  0.8660254 -0.5000000  0.0000000 )
                  (  0.0000000  0.0000000  1.0000000 )


      isym =  3     120 deg rotation - cryst. axis [0,0,-1]      

 cryst.   s( 3) = (    -1         -1          0      )
                  (     1          0          0      )
                  (     0          0          1      )

 cart.    s( 3) = ( -0.5000000  0.8660254  0.0000000 )
                  ( -0.8660254 -0.5000000  0.0000000 )
                  (  0.0000000  0.0000000  1.0000000 )


      isym =  4     inv. 180 deg rotation - cart. axis [1,0,0]   

 cryst.   s( 4) = (    -1          0          0      )
                  (     1          1          0      )
                  (     0          0          1      )

 cart.    s( 4) = ( -1.0000000  0.0000000  0.0000000 )
                  (  0.0000000  1.0000000  0.0000000 )
                  (  0.0000000  0.0000000  1.0000000 )


      isym =  5     inv. 180 deg rotation - cryst. axis [0,1,0]  

 cryst.   s( 5) = (     1          1          0      )
                  (     0         -1          0      )
                  (     0          0          1      )

 cart.    s( 5) = (  0.5000000  0.8660254  0.0000000 )
                  (  0.8660254 -0.5000000  0.0000000 )
                  (  0.0000000  0.0000000  1.0000000 )


      isym =  6     inv. 180 deg rotation - cryst. axis [1,1,0]  

 cryst.   s( 6) = (     0         -1          0      )
                  (    -1          0          0      )
                  (     0          0          1      )

 cart.    s( 6) = (  0.5000000 -0.8660254  0.0000000 )
                  ( -0.8660254 -0.5000000  0.0000000 )
                  (  0.0000000  0.0000000  1.0000000 )


     point group C_3v (3m)  
     there are  3 classes
     the character table:

       E     2C3   3s_v 
A_1    1.00  1.00  1.00
A_2    1.00  1.00 -1.00
E      2.00 -1.00  0.00

     the symmetry operations in each class and the name of the first element:

     E        1
          identity                                               
     2C3      2    3
          120 deg rotation - cryst. axis [0,0,1]                 
     3s_v     4    5    6
          inv. 180 deg rotation - cart. axis [1,0,0]             

   Cartesian axes

     site n.     atom                  positions (alat units)
         1        Mo     tau(   1) = (   0.1666639   0.0962235   0.3559668  )
         2        S      tau(   2) = (   0.0000000   0.1924490   0.1931802  )
         3        S      tau(   3) = (  -0.0000000   0.1924490   0.5187570  )
         4        Mo     tau(   4) = (   0.0000000   0.3848972   0.3559672  )
         5        S      tau(   5) = (  -0.1666671   0.4811256   0.1931820  )
         6        S      tau(   6) = (  -0.1666671   0.4811256   0.5187556  )
         7        Mo     tau(   7) = (  -0.1666687   0.6735759   0.3559672  )
         8        S      tau(   8) = (  -0.3333343   0.7698009   0.1931802  )
         9        S      tau(   9) = (  -0.3333343   0.7698009   0.5187570  )
        10        Mo     tau(  10) = (   0.4999995   0.0962253   0.3559674  )
        11        S      tau(  11) = (   0.3333324   0.1924496   0.1931829  )
        12        S      tau(  12) = (   0.3333323   0.1924495   0.5187547  )
        13        Mo     tau(  13) = (   0.3333333   0.3848996   0.3559674  )
        14        S      tau(  14) = (   0.1666661   0.4811256   0.1931820  )
        15        S      tau(  15) = (   0.1666661   0.4811256   0.5187556  )
        16        Mo     tau(  16) = (   0.1666687   0.6735759   0.3559672  )
        17        S      tau(  17) = (  -0.0000005   0.7698006   0.1931820  )
        18        S      tau(  18) = (  -0.0000005   0.7698005   0.5187556  )
        19        Mo     tau(  19) = (   0.8333361   0.0962235   0.3559668  )
        20        S      tau(  20) = (   0.6666676   0.1924496   0.1931829  )
        21        S      tau(  21) = (   0.6666677   0.1924495   0.5187547  )
        22        Mo     tau(  22) = (   0.6666667   0.3848996   0.3559674  )
        23        S      tau(  23) = (   0.5000000   0.4811263   0.1931829  )
        24        S      tau(  24) = (   0.5000000   0.4811265   0.5187547  )
        25        Mo     tau(  25) = (   0.5000005   0.6735776   0.3559668  )
        26        S      tau(  26) = (   0.3333343   0.7698009   0.1931802  )
        27        S      tau(  27) = (   0.3333343   0.7698009   0.5187570  )

   Crystallographic axes

     site n.     atom                  positions (cryst. coord.)
         1        Mo     tau(   1) = (  0.2222186  0.1111093  0.1678137  )
         2        S      tau(   2) = (  0.1111105  0.2222209  0.0910711  )
         3        S      tau(   3) = (  0.1111105  0.2222209  0.2445580  )
         4        Mo     tau(   4) = (  0.2222205  0.4444411  0.1678139  )
         5        S      tau(   5) = (  0.1111109  0.5555559  0.0910719  )
         6        S      tau(   6) = (  0.1111109  0.5555560  0.2445573  )
         7        Mo     tau(   7) = (  0.2222205  0.7777785  0.1678139  )
         8        S      tau(   8) = (  0.1111105  0.8888895  0.0910711  )
         9        S      tau(   9) = (  0.1111105  0.8888895  0.2445580  )
        10        Mo     tau(  10) = (  0.5555552  0.1111115  0.1678140  )
        11        S      tau(  11) = (  0.4444432  0.2222216  0.0910723  )
        12        S      tau(  12) = (  0.4444430  0.2222215  0.2445569  )
        13        Mo     tau(  13) = (  0.5555552  0.4444438  0.1678140  )
        14        S      tau(  14) = (  0.4444441  0.5555559  0.0910719  )
        15        S      tau(  15) = (  0.4444440  0.5555560  0.2445573  )
        16        Mo     tau(  16) = (  0.5555579  0.7777785  0.1678139  )
        17        S      tau(  17) = (  0.4444441  0.8888891  0.0910719  )
        18        S      tau(  18) = (  0.4444440  0.8888891  0.2445573  )
        19        Mo     tau(  19) = (  0.8888907  0.1111093  0.1678137  )
        20        S      tau(  20) = (  0.7777784  0.2222216  0.0910723  )
        21        S      tau(  21) = (  0.7777785  0.2222215  0.2445569  )
        22        Mo     tau(  22) = (  0.8888885  0.4444438  0.1678140  )
        23        S      tau(  23) = (  0.7777784  0.5555568  0.0910723  )
        24        S      tau(  24) = (  0.7777785  0.5555570  0.2445569  )
        25        Mo     tau(  25) = (  0.8888907  0.7777804  0.1678137  )
        26        S      tau(  26) = (  0.7777791  0.8888895  0.0910711  )
        27        S      tau(  27) = (  0.7777791  0.8888895  0.2445580  )

     number of k points=     1  Marzari-Vanderbilt smearing, width (Ry)=  0.0050
                       cart. coord. in units 2pi/alat
        k(    1) = (   0.0000000   0.0000000   0.0000000), wk =   2.0000000

                       cryst. coord.
        k(    1) = (   0.0000000   0.0000000   0.0000000), wk =   2.0000000

     Dense  grid:   427804 G-vectors     FFT dimensions: ( 100, 100, 216)

     Dynamical RAM for                 wfc:     114.27 MB

     Dynamical RAM for     wfc (w. buffer):     114.27 MB

     Dynamical RAM for           str. fact:      13.06 MB

     Dynamical RAM for           local pot:       0.00 MB

     Dynamical RAM for          nlocal pot:     249.76 MB

     Dynamical RAM for                qrad:       2.69 MB

     Dynamical RAM for          rho,v,vnew:      69.02 MB

     Dynamical RAM for               rhoin:      23.01 MB

     Dynamical RAM for            rho*nmix:     104.44 MB

     Dynamical RAM for           G-vectors:      27.74 MB

     Dynamical RAM for          h,s,v(r/c):       1.79 MB

     Dynamical RAM for          <psi|beta>:       0.33 MB

     Dynamical RAM for                 psi:     228.54 MB

     Dynamical RAM for                hpsi:     228.54 MB

     Dynamical RAM for      wfcinit/wfcrot:     228.99 MB

     Estimated static dynamical RAM per process >     601.53 MB

     Estimated max dynamical RAM per process >       1.14 GB

     Initial potential from superposition of free atoms

     starting charge     233.9905, renormalised to     234.0000

     negative rho (up, down):  5.764E-05 0.000E+00
     Starting wfcs are  162 randomized atomic wfcs

     total cpu time spent up to now is        1.8 secs

     Self-consistent Calculation
[tb_dev] Currently allocated     2.63E+00 Mbytes, locked:    0 /   4
[tb_pin] Currently allocated     0.00E+00 Mbytes, locked:    0 /   0

     iteration #  1     ecut=    70.00 Ry     beta= 0.70
     Davidson diagonalization with overlap

---- Real-time Memory Report at c_bands before calling an iterative solver
          1104 MiB given to the printing process from OS
             0 MiB allocation reported by mallinfo(arena+hblkhd)
         17395 MiB available memory on the node where the printing process lives
     GPU memory used/free/total (MiB): 2903 / 9010 / 11914
------------------
     ethr =  1.00E-02,  avg # of iterations =  2.0

     Threshold (ethr) on eigenvalues was too large:
     Diagonalizing with lowered threshold

     Davidson diagonalization with overlap

---- Real-time Memory Report at c_bands before calling an iterative solver
          1107 MiB given to the printing process from OS
             0 MiB allocation reported by mallinfo(arena+hblkhd)
         17392 MiB available memory on the node where the printing process lives
     GPU memory used/free/total (MiB): 3373 / 8540 / 11914
------------------
     ethr =  3.22E-04,  avg # of iterations =  4.0

     negative rho (up, down):  3.022E-08 0.000E+00

     total cpu time spent up to now is        6.9 secs

     total energy              =   -1603.71944300 Ry
     estimated scf accuracy    <       1.12031091 Ry
[tb_dev] Currently allocated     1.03E-04 Mbytes, locked:    0 /   1
[tb_pin] Currently allocated     0.00E+00 Mbytes, locked:    0 /   0

     iteration #  2     ecut=    70.00 Ry     beta= 0.70
     Davidson diagonalization with overlap

---- Real-time Memory Report at c_bands before calling an iterative solver
          1179 MiB given to the printing process from OS
             0 MiB allocation reported by mallinfo(arena+hblkhd)
         17320 MiB available memory on the node where the printing process lives
     GPU memory used/free/total (MiB): 3485 / 8428 / 11914
------------------
     ethr =  4.79E-04,  avg # of iterations =  4.0

     total cpu time spent up to now is        9.9 secs

     total energy              =   -1603.33033428 Ry
     estimated scf accuracy    <       4.47041703 Ry
[tb_dev] Currently allocated     1.03E-04 Mbytes, locked:    0 /   1
[tb_pin] Currently allocated     0.00E+00 Mbytes, locked:    0 /   0

     iteration #  3     ecut=    70.00 Ry     beta= 0.70
     Davidson diagonalization with overlap

---- Real-time Memory Report at c_bands before calling an iterative solver
          1206 MiB given to the printing process from OS
             0 MiB allocation reported by mallinfo(arena+hblkhd)
         17287 MiB available memory on the node where the printing process lives
     GPU memory used/free/total (MiB): 3485 / 8428 / 11914
------------------
     ethr =  4.79E-04,  avg # of iterations =  5.0

     total cpu time spent up to now is       12.6 secs

     total energy              =   -1604.09514235 Ry
     estimated scf accuracy    <       0.68159009 Ry
[tb_dev] Currently allocated     1.03E-04 Mbytes, locked:    0 /   1
[tb_pin] Currently allocated     0.00E+00 Mbytes, locked:    0 /   0

     iteration #  4     ecut=    70.00 Ry     beta= 0.70
     Davidson diagonalization with overlap

---- Real-time Memory Report at c_bands before calling an iterative solver
          1233 MiB given to the printing process from OS
             0 MiB allocation reported by mallinfo(arena+hblkhd)
         17262 MiB available memory on the node where the printing process lives
     GPU memory used/free/total (MiB): 3485 / 8428 / 11914
------------------
     ethr =  2.91E-04,  avg # of iterations =  2.0

     total cpu time spent up to now is       14.8 secs

     total energy              =   -1604.18995165 Ry
     estimated scf accuracy    <       0.00821876 Ry
[tb_dev] Currently allocated     1.03E-04 Mbytes, locked:    0 /   1
[tb_pin] Currently allocated     0.00E+00 Mbytes, locked:    0 /   0

     iteration #  5     ecut=    70.00 Ry     beta= 0.70
     Davidson diagonalization with overlap

---- Real-time Memory Report at c_bands before calling an iterative solver
          1259 MiB given to the printing process from OS
             0 MiB allocation reported by mallinfo(arena+hblkhd)
         17227 MiB available memory on the node where the printing process lives
     GPU memory used/free/total (MiB): 3485 / 8428 / 11914
------------------
     c_bands:  3 eigenvalues not converged
     ethr =  3.51E-06,  avg # of iterations = 20.0

     total cpu time spent up to now is       19.3 secs

     total energy              =   -1604.18807197 Ry
     estimated scf accuracy    <       0.11232622 Ry
[tb_dev] Currently allocated     1.03E-04 Mbytes, locked:    0 /   1
[tb_pin] Currently allocated     0.00E+00 Mbytes, locked:    0 /   0

     iteration #  6     ecut=    70.00 Ry     beta= 0.70
     Davidson diagonalization with overlap

---- Real-time Memory Report at c_bands before calling an iterative solver
          1285 MiB given to the printing process from OS
             0 MiB allocation reported by mallinfo(arena+hblkhd)
         17203 MiB available memory on the node where the printing process lives
     GPU memory used/free/total (MiB): 3485 / 8428 / 11914
------------------
     ethr =  3.51E-06,  avg # of iterations = 12.0

     total cpu time spent up to now is       22.6 secs

     total energy              =   -1604.19668604 Ry
     estimated scf accuracy    <       0.00532966 Ry
[tb_dev] Currently allocated     1.03E-04 Mbytes, locked:    0 /   1
[tb_pin] Currently allocated     0.00E+00 Mbytes, locked:    0 /   0

     iteration #  7     ecut=    70.00 Ry     beta= 0.70
     Davidson diagonalization with overlap

---- Real-time Memory Report at c_bands before calling an iterative solver
          1324 MiB given to the printing process from OS
             0 MiB allocation reported by mallinfo(arena+hblkhd)
         17168 MiB available memory on the node where the printing process lives
     GPU memory used/free/total (MiB): 3485 / 8428 / 11914
------------------
     ethr =  2.28E-06,  avg # of iterations =  2.0

     total cpu time spent up to now is       24.8 secs

     total energy              =   -1604.19678303 Ry
     estimated scf accuracy    <       0.00172253 Ry
[tb_dev] Currently allocated     1.03E-04 Mbytes, locked:    0 /   1
[tb_pin] Currently allocated     0.00E+00 Mbytes, locked:    0 /   0

     iteration #  8     ecut=    70.00 Ry     beta= 0.70
     Davidson diagonalization with overlap

---- Real-time Memory Report at c_bands before calling an iterative solver
          1343 MiB given to the printing process from OS
             0 MiB allocation reported by mallinfo(arena+hblkhd)
         17145 MiB available memory on the node where the printing process lives
     GPU memory used/free/total (MiB): 3485 / 8428 / 11914
------------------
     ethr =  7.36E-07,  avg # of iterations =  3.0

     total cpu time spent up to now is       27.1 secs

     total energy              =   -1604.19689546 Ry
     estimated scf accuracy    <       0.00044885 Ry
[tb_dev] Currently allocated     1.03E-04 Mbytes, locked:    0 /   1
[tb_pin] Currently allocated     0.00E+00 Mbytes, locked:    0 /   0

     iteration #  9     ecut=    70.00 Ry     beta= 0.70
     Davidson diagonalization with overlap

---- Real-time Memory Report at c_bands before calling an iterative solver
          1363 MiB given to the printing process from OS
             0 MiB allocation reported by mallinfo(arena+hblkhd)
         17129 MiB available memory on the node where the printing process lives
     GPU memory used/free/total (MiB): 3485 / 8428 / 11914
------------------
     ethr =  1.92E-07,  avg # of iterations =  4.0

     total cpu time spent up to now is       29.5 secs

     total energy              =   -1604.19696018 Ry
     estimated scf accuracy    <       0.00005985 Ry
[tb_dev] Currently allocated     1.03E-04 Mbytes, locked:    0 /   1
[tb_pin] Currently allocated     0.00E+00 Mbytes, locked:    0 /   0

     iteration # 10     ecut=    70.00 Ry     beta= 0.70
     Davidson diagonalization with overlap

---- Real-time Memory Report at c_bands before calling an iterative solver
          1389 MiB given to the printing process from OS
             0 MiB allocation reported by mallinfo(arena+hblkhd)
         17105 MiB available memory on the node where the printing process lives
     GPU memory used/free/total (MiB): 3485 / 8428 / 11914
------------------
     ethr =  2.56E-08,  avg # of iterations =  5.0

     total cpu time spent up to now is       32.2 secs

     total energy              =   -1604.19696520 Ry
     estimated scf accuracy    <       0.00019094 Ry
[tb_dev] Currently allocated     1.03E-04 Mbytes, locked:    0 /   1
[tb_pin] Currently allocated     0.00E+00 Mbytes, locked:    0 /   0

     iteration # 11     ecut=    70.00 Ry     beta= 0.70
     Davidson diagonalization with overlap

---- Real-time Memory Report at c_bands before calling an iterative solver
          1390 MiB given to the printing process from OS
             0 MiB allocation reported by mallinfo(arena+hblkhd)
         17104 MiB available memory on the node where the printing process lives
     GPU memory used/free/total (MiB): 3485 / 8428 / 11914
------------------
     ethr =  2.56E-08,  avg # of iterations =  3.0

     total cpu time spent up to now is       34.6 secs

     total energy              =   -1604.19697994 Ry
     estimated scf accuracy    <       0.00000960 Ry
[tb_dev] Currently allocated     1.03E-04 Mbytes, locked:    0 /   1
[tb_pin] Currently allocated     0.00E+00 Mbytes, locked:    0 /   0

     iteration # 12     ecut=    70.00 Ry     beta= 0.70
     Davidson diagonalization with overlap

---- Real-time Memory Report at c_bands before calling an iterative solver
          1390 MiB given to the printing process from OS
             0 MiB allocation reported by mallinfo(arena+hblkhd)
         17103 MiB available memory on the node where the printing process lives
     GPU memory used/free/total (MiB): 3485 / 8428 / 11914
------------------
     ethr =  4.10E-09,  avg # of iterations =  4.0

     total cpu time spent up to now is       37.0 secs

     total energy              =   -1604.19698161 Ry
     estimated scf accuracy    <       0.00000224 Ry
[tb_dev] Currently allocated     1.03E-04 Mbytes, locked:    0 /   1
[tb_pin] Currently allocated     0.00E+00 Mbytes, locked:    0 /   0

     iteration # 13     ecut=    70.00 Ry     beta= 0.70
     Davidson diagonalization with overlap

---- Real-time Memory Report at c_bands before calling an iterative solver
          1398 MiB given to the printing process from OS
             0 MiB allocation reported by mallinfo(arena+hblkhd)
         17095 MiB available memory on the node where the printing process lives
     GPU memory used/free/total (MiB): 3485 / 8428 / 11914
------------------
     ethr =  9.58E-10,  avg # of iterations =  3.0

     total cpu time spent up to now is       39.4 secs

     total energy              =   -1604.19698187 Ry
     estimated scf accuracy    <       0.00000158 Ry
[tb_dev] Currently allocated     1.03E-04 Mbytes, locked:    0 /   1
[tb_pin] Currently allocated     0.00E+00 Mbytes, locked:    0 /   0

     iteration # 14     ecut=    70.00 Ry     beta= 0.70
     Davidson diagonalization with overlap

---- Real-time Memory Report at c_bands before calling an iterative solver
          1398 MiB given to the printing process from OS
             0 MiB allocation reported by mallinfo(arena+hblkhd)
         17087 MiB available memory on the node where the printing process lives
     GPU memory used/free/total (MiB): 3485 / 8428 / 11914
------------------
     ethr =  6.73E-10,  avg # of iterations =  2.0

     total cpu time spent up to now is       41.6 secs

     End of self-consistent calculation

          k = 0.0000 0.0000 0.0000 ( 53482 PWs)   bands (ev):

   -61.8299 -61.8023 -61.8022 -61.8022 -61.8021 -61.8019 -61.8016 -61.7881
   -61.7880 -36.0391 -36.0351 -36.0350 -36.0350 -36.0348 -36.0348 -36.0348
   -36.0346 -36.0345 -35.9908 -35.9907 -35.9831 -35.9831 -35.9830 -35.9829
   -35.9827 -35.9825 -35.9548 -35.9546 -35.8192 -35.8192 -35.8191 -35.8191
   -35.8189 -35.8188 -35.7545 -35.7545 -15.1846 -13.8866 -13.8865 -13.8864
   -13.8863 -13.8862 -13.8861 -13.8720 -13.3538 -13.3538 -13.3537 -13.3536
   -13.3535 -13.3534 -13.0664 -13.0663 -12.9875 -12.9874  -6.6711  -6.4835
    -6.4835  -6.3049  -6.3049  -6.3049  -6.3047  -6.3047  -6.3047  -5.6753
    -5.6753  -5.2529  -5.2528  -5.2528  -5.2527  -5.2527  -5.2526  -5.1352
    -5.1351  -4.9729  -4.9729  -4.9729  -4.9728  -4.9728  -4.9727  -4.6226
    -4.6225  -3.9630  -3.9630  -3.9353  -3.9352  -3.9351  -3.9351  -3.9350
    -3.9349  -3.6641  -3.6641  -3.2089  -3.2088  -2.8296  -2.6865  -2.6864
    -2.6864  -2.6863  -2.6862  -2.6862  -2.5900  -2.5899  -2.4550  -2.4550
    -2.4549  -2.4548  -2.4548  -2.4548  -1.9906  -1.9906  -1.9905  -1.9904
    -1.9904  -1.9903  -1.0313  -1.0175  -1.0175   0.6176   0.6177   1.2123
     1.2123   1.2124   1.2124   1.2125   1.2125   1.3241   1.3242   1.3242
     1.3243   1.3244   1.3244   1.7049   1.7050   1.9681   1.9681   2.0528
     2.0529   2.3615   2.3616   2.3616

     occupation numbers 
     1.0000   1.0000   1.0000   1.0000   1.0000   1.0000   1.0000   1.0000
     1.0000   1.0000   1.0000   1.0000   1.0000   1.0000   1.0000   1.0000
     1.0000   1.0000   1.0000   1.0000   1.0000   1.0000   1.0000   1.0000
     1.0000   1.0000   1.0000   1.0000   1.0000   1.0000   1.0000   1.0000
     1.0000   1.0000   1.0000   1.0000   1.0000   1.0000   1.0000   1.0000
     1.0000   1.0000   1.0000   1.0000   1.0000   1.0000   1.0000   1.0000
     1.0000   1.0000   1.0000   1.0000   1.0000   1.0000   1.0000   1.0000
     1.0000   1.0000   1.0000   1.0000   1.0000   1.0000   1.0000   1.0000
     1.0000   1.0000   1.0000   1.0000   1.0000   1.0000   1.0000   1.0000
     1.0000   1.0000   1.0000   1.0000   1.0000   1.0000   1.0000   1.0000
     1.0000   1.0000   1.0000   1.0000   1.0000   1.0000   1.0000   1.0000
     1.0000   1.0000   1.0000   1.0000   1.0000   1.0000   1.0000   1.0000
     1.0000   1.0000   1.0000   1.0000   1.0000   1.0000   1.0000   1.0000
     1.0000   1.0000   1.0000   1.0000   1.0000   1.0000   1.0000   1.0000
     1.0000   1.0000   1.0000   1.0000   1.0000   0.0000   0.0000   0.0000
     0.0000   0.0000   0.0000   0.0000   0.0000   0.0000   0.0000   0.0000
     0.0000   0.0000   0.0000   0.0000   0.0000   0.0000   0.0000   0.0000
     0.0000   0.0000   0.0000   0.0000

     the Fermi energy is    -0.0308 ev

!    total energy              =   -1604.19698179 Ry
     estimated scf accuracy    <       0.00000027 Ry
     smearing contrib. (-TS)   =      -0.00000000 Ry
     internal energy E=F+TS    =   -1604.19698179 Ry

     The total energy is F=E-TS. E is the sum of the following terms:
     one-electron contribution =  -10276.44171306 Ry
     hartree contribution      =    5134.52518157 Ry
     xc contribution           =    -222.28354356 Ry
     ewald contribution        =    3760.00309326 Ry

     convergence has been achieved in  14 iterations

     Writing all to output data dir ./tmp/MoS2.save/ :
     XML data file, charge density, pseudopotentials, collected wavefunctions
 
     init_run     :      1.51s CPU      1.70s WALL (       1 calls)
     electrons    :     39.71s CPU     39.81s WALL (       1 calls)

     Called by init_run:
     wfcinit      :      1.15s CPU      1.18s WALL (       1 calls)
     wfcinit:atom :      0.01s CPU      0.01s WALL (       1 calls)
     wfcinit:wfcr :      1.13s CPU      1.16s WALL (       1 calls)
     potinit      :      0.11s CPU      0.15s WALL (       1 calls)
     hinit0       :      0.14s CPU      0.16s WALL (       1 calls)

     Called by electrons:
     c_bands      :     34.37s CPU     34.38s WALL (      15 calls)
     sum_band     :      3.50s CPU      3.50s WALL (      15 calls)
     v_of_rho     :      0.86s CPU      0.90s WALL (      15 calls)
     v_h          :      0.22s CPU      0.24s WALL (      15 calls)
     v_xc         :      0.64s CPU      0.66s WALL (      15 calls)
     mix_rho      :      0.75s CPU      0.81s WALL (      15 calls)

     Called by c_bands:
     init_us_2    :      0.18s CPU      0.18s WALL (      31 calls)
     regterg      :     33.72s CPU     33.73s WALL (      15 calls)

     Called by sum_band:
     sum_band:wei :      0.00s CPU      0.00s WALL (      15 calls)
     sum_band:loo :      3.27s CPU      3.28s WALL (      15 calls)
     sum_band:buf :      0.24s CPU      0.24s WALL (      15 calls)
     sum_band:ini :      0.08s CPU      0.08s WALL (      15 calls)

     Called by *egterg:
     rdiaghg      :      0.81s CPU      0.82s WALL (      89 calls)
                                        0.82s GPU  (      89 calls)
     regterg:over :      3.38s CPU      3.39s WALL (      75 calls)
     regterg:upda :      1.89s CPU      1.89s WALL (      75 calls)
     regterg:last :      2.89s CPU      2.89s WALL (      34 calls)
     h_psi        :     23.53s CPU     23.54s WALL (      91 calls)
                                       23.54s GPU  (      91 calls)
     g_psi        :      0.00s CPU      0.13s WALL (      75 calls)
                                        0.13s GPU  (      75 calls)

     Called by h_psi:
     h_psi:calbec :      0.16s CPU      3.42s WALL (      91 calls)
                                        3.42s GPU  (      91 calls)
     vloc_psi     :     16.99s CPU     16.99s WALL (      91 calls)
                                       16.99s GPU  (      91 calls)
     add_vuspsi   :      0.02s CPU      3.09s WALL (      91 calls)
                                        3.09s GPU  (      91 calls)

     General routines
     calbec       :      0.16s CPU      0.17s WALL (      91 calls)
     fft          :      0.00s CPU      0.31s WALL (     120 calls)
                                        0.31s GPU  (     120 calls)
     ffts         :      0.00s CPU      0.04s WALL (      15 calls)
                                        0.04s GPU  (      15 calls)
     fftw         :      0.02s CPU     18.01s WALL (    1528 calls)
                                       18.01s GPU  (    1528 calls)
 
     Parallel routines
 
     PWSCF        :     41.33s CPU     41.73s WALL

 
   This run was terminated on:   0:21:29  12Jul2026            

=------------------------------------------------------------------------------=
   JOB DONE.
=------------------------------------------------------------------------------=
