
     Program PWSCF v.7.4.1 starts on 12Jul2026 at  0:59:24 

     This program is part of the open-source Quantum ESPRESSO suite
     for quantum simulation of materials; please cite
         "P. Giannozzi et al., J. Phys.:Condens. Matter 21 395502 (2009);
         "P. Giannozzi et al., J. Phys.:Condens. Matter 29 465901 (2017);
         "P. Giannozzi et al., J. Chem. Phys. 152 154105 (2020);
          URL http://www.quantum-espresso.org", 
     in publications or presentations arising from this work. More details at
     http://www.quantum-espresso.org/quote

     Parallel version (MPI), running on     1 processors

     MPI processes distributed on     1 nodes
     17553 MiB available memory on the printing compute node when the environment starts
 
     Reading input from scf.in

     Current dimensions of program PWSCF are:
     Max number of different atomic species (ntypx) = 10
     Max number of k-points (npk) =  40000
     Max angular momentum in pseudopotentials (lmaxx) =  4

     gamma-point specific algorithms are used
 
     Subspace diagonalization in iterative solution of the eigenvalue problem:
     a serial algorithm will be used

 
     G-vector sticks info
     --------------------
     sticks:   dense  smooth     PW     G-vecs:    dense   smooth      PW
     Sum        6307    6307   1573               855607   855607  106963
 
     Using Slab Decomposition
 


     bravais-lattice index     =            0
     lattice parameter (alat)  =      18.0580  a.u.
     unit-cell volume          =   10817.4318 (a.u.)^3
     number of atoms/cell      =           28
     number of atomic types    =            3
     number of electrons       =       235.00
     number of Kohn-Sham states=          142
     kinetic-energy cutoff     =      70.0000  Ry
     charge density cutoff     =     280.0000  Ry
     scf convergence threshold =      1.0E-06
     mixing beta               =       0.7000
     number of iterations used =            8  plain     mixing
     Exchange-correlation= PBE
                           (   1   4   3   4   0   0   0)

     GPU acceleration is ACTIVE.  1 visible GPUs per MPI rank
     GPU-aware MPI enabled


     GPU used by master process:

        Device Number: 0
        Device name: NVIDIA RTX A2000 12GB
        Compute capability : 86
        Ratio of single to double precision performance  : 64
        Memory Clock Rate (KHz): 6001000
        Memory Bus Width (bits): 192
        Peak Memory Bandwidth (GB/s): 288.05

     celldm(1)=  18.058034  celldm(2)=   0.000000  celldm(3)=   0.000000
     celldm(4)=   0.000000  celldm(5)=   0.000000  celldm(6)=   0.000000

     crystal axes: (cart. coord. in units of alat)
               a(1) = (   1.000000   0.000000   0.000000 )  
               a(2) = (  -0.500000   0.866025   0.000000 )  
               a(3) = (   0.000000   0.000000   2.121203 )  

     reciprocal axes: (cart. coord. in units 2 pi/alat)
               b(1) = (  1.000000  0.577350 -0.000000 )  
               b(2) = (  0.000000  1.154701  0.000000 )  
               b(3) = (  0.000000 -0.000000  0.471431 )  


     PseudoPot. # 1 for Mo read from file:
     ./../../pseudo/Mo_ONCV_PBE_sr.upf
     MD5 check sum: f6cd2699259e285988a5451c48631988
     Pseudo is Norm-conserving, Zval = 14.0
     Generated using ONCVPSP code by D. R. Hamann
     Using radial grid of 1526 points,  6 beta functions with: 
                l(1) =   0
                l(2) =   0
                l(3) =   1
                l(4) =   1
                l(5) =   2
                l(6) =   2

     PseudoPot. # 2 for S  read from file:
     ./../../pseudo/S_ONCV_PBE_sr.upf
     MD5 check sum: 349606e8212f885553119adf97947dd6
     Pseudo is Norm-conserving, Zval =  6.0
     Generated using ONCVPSP code by D. R. Hamann
     Using radial grid of 1146 points,  4 beta functions with: 
                l(1) =   0
                l(2) =   0
                l(3) =   1
                l(4) =   1

     PseudoPot. # 3 for H  read from file:
     ./../../pseudo/H_ONCV_PBE_sr.upf
     MD5 check sum: 8975ef619c0c80d0ef0fa21f3286b90d
     Pseudo is Norm-conserving, Zval =  1.0
     Generated using ONCVPSP code by D. R. Hamann
     Using radial grid of 1166 points,  2 beta functions with: 
                l(1) =   0
                l(2) =   0

     atomic species   valence    mass     pseudopotential
     Mo               14.00    95.95000     Mo( 1.00)
     S                 6.00    32.06500     S ( 1.00)
     H                 1.00     1.00780     H ( 1.00)

     No symmetry found


                                    s                        frac. trans.

      isym =  1     identity                                     

 cryst.   s( 1) = (     1          0          0      )
                  (     0          1          0      )
                  (     0          0          1      )

 cart.    s( 1) = (  1.0000000  0.0000000  0.0000000 )
                  (  0.0000000  1.0000000  0.0000000 )
                  (  0.0000000  0.0000000  1.0000000 )


   Cartesian axes

     site n.     atom                  positions (alat units)
         1        Mo     tau(   1) = (   0.1666639   0.0962235   0.3559668  )
         2        S      tau(   2) = (   0.0000000   0.1924490   0.1931802  )
         3        S      tau(   3) = (  -0.0000000   0.1924490   0.5187570  )
         4        Mo     tau(   4) = (   0.0000000   0.3848972   0.3559672  )
         5        S      tau(   5) = (  -0.1666671   0.4811255   0.1931820  )
         6        S      tau(   6) = (  -0.1666671   0.4811256   0.5187556  )
         7        Mo     tau(   7) = (  -0.1666687   0.6735759   0.3559672  )
         8        S      tau(   8) = (  -0.3333343   0.7698009   0.1931802  )
         9        S      tau(   9) = (  -0.3333343   0.7698009   0.5187570  )
        10        Mo     tau(  10) = (   0.4999995   0.0962253   0.3559674  )
        11        S      tau(  11) = (   0.3333324   0.1924496   0.1931829  )
        12        S      tau(  12) = (   0.3333323   0.1924495   0.5187547  )
        13        Mo     tau(  13) = (   0.3333333   0.3848996   0.3559674  )
        14        S      tau(  14) = (   0.1666661   0.4811255   0.1931820  )
        15        S      tau(  15) = (   0.1666661   0.4811256   0.5187556  )
        16        Mo     tau(  16) = (   0.1666687   0.6735759   0.3559672  )
        17        S      tau(  17) = (  -0.0000005   0.7698005   0.1931820  )
        18        S      tau(  18) = (  -0.0000005   0.7698005   0.5187556  )
        19        Mo     tau(  19) = (   0.8333361   0.0962235   0.3559668  )
        20        S      tau(  20) = (   0.6666676   0.1924496   0.1931829  )
        21        S      tau(  21) = (   0.6666677   0.1924495   0.5187547  )
        22        Mo     tau(  22) = (   0.6666667   0.3848996   0.3559674  )
        23        S      tau(  23) = (   0.5000000   0.4811263   0.1931829  )
        24        S      tau(  24) = (   0.5000000   0.4811265   0.5187547  )
        25        Mo     tau(  25) = (   0.5000005   0.6735776   0.3559668  )
        26        S      tau(  26) = (   0.3333343   0.7698009   0.1931802  )
        27        S      tau(  27) = (   0.3333343   0.7698009   0.5187570  )
        28        H      tau(  28) = (   0.1666624   0.4811165   0.6617543  )

     Fixed atoms
     site n.  direction
         1    0   0   0
         2    0   0   0
         3    0   0   0
         4    0   0   0
         5    0   0   0
         6    0   0   0
         7    0   0   0
         8    0   0   0
         9    0   0   0
        10    0   0   0
        11    0   0   0
        12    0   0   0
        13    0   0   0
        14    0   0   0
        15    0   0   0
        16    0   0   0
        17    0   0   0
        18    0   0   0
        19    0   0   0
        20    0   0   0
        21    0   0   0
        22    0   0   0
        23    0   0   0
        24    0   0   0
        25    0   0   0
        26    0   0   0
        27    0   0   0
        28    1   1   1

   Crystallographic axes

     site n.     atom                  positions (cryst. coord.)
         1        Mo     tau(   1) = (  0.2222186  0.1111093  0.1678137  )
         2        S      tau(   2) = (  0.1111105  0.2222209  0.0910711  )
         3        S      tau(   3) = (  0.1111105  0.2222209  0.2445580  )
         4        Mo     tau(   4) = (  0.2222205  0.4444411  0.1678139  )
         5        S      tau(   5) = (  0.1111109  0.5555559  0.0910719  )
         6        S      tau(   6) = (  0.1111109  0.5555560  0.2445573  )
         7        Mo     tau(   7) = (  0.2222205  0.7777785  0.1678139  )
         8        S      tau(   8) = (  0.1111105  0.8888895  0.0910711  )
         9        S      tau(   9) = (  0.1111105  0.8888895  0.2445580  )
        10        Mo     tau(  10) = (  0.5555552  0.1111115  0.1678140  )
        11        S      tau(  11) = (  0.4444432  0.2222216  0.0910723  )
        12        S      tau(  12) = (  0.4444430  0.2222215  0.2445569  )
        13        Mo     tau(  13) = (  0.5555552  0.4444438  0.1678140  )
        14        S      tau(  14) = (  0.4444441  0.5555559  0.0910719  )
        15        S      tau(  15) = (  0.4444440  0.5555560  0.2445573  )
        16        Mo     tau(  16) = (  0.5555579  0.7777785  0.1678139  )
        17        S      tau(  17) = (  0.4444441  0.8888891  0.0910719  )
        18        S      tau(  18) = (  0.4444440  0.8888891  0.2445573  )
        19        Mo     tau(  19) = (  0.8888907  0.1111093  0.1678137  )
        20        S      tau(  20) = (  0.7777784  0.2222216  0.0910723  )
        21        S      tau(  21) = (  0.7777785  0.2222215  0.2445569  )
        22        Mo     tau(  22) = (  0.8888885  0.4444438  0.1678140  )
        23        S      tau(  23) = (  0.7777784  0.5555568  0.0910723  )
        24        S      tau(  24) = (  0.7777785  0.5555570  0.2445569  )
        25        Mo     tau(  25) = (  0.8888907  0.7777804  0.1678137  )
        26        S      tau(  26) = (  0.7777791  0.8888895  0.0910711  )
        27        S      tau(  27) = (  0.7777791  0.8888895  0.2445580  )
        28        H      tau(  28) = (  0.4444351  0.5555455  0.3119713  )

     number of k points=     1  Marzari-Vanderbilt smearing, width (Ry)=  0.0050
                       cart. coord. in units 2pi/alat
        k(    1) = (   0.0000000   0.0000000   0.0000000), wk =   2.0000000

                       cryst. coord.
        k(    1) = (   0.0000000   0.0000000   0.0000000), wk =   2.0000000

     Dense  grid:   427804 G-vectors     FFT dimensions: ( 100, 100, 216)

     Dynamical RAM for                 wfc:     115.90 MB

     Dynamical RAM for     wfc (w. buffer):     115.90 MB

     Dynamical RAM for           str. fact:      19.58 MB

     Dynamical RAM for           local pot:       0.00 MB

     Dynamical RAM for          nlocal pot:     251.40 MB

     Dynamical RAM for                qrad:       4.03 MB

     Dynamical RAM for          rho,v,vnew:      69.02 MB

     Dynamical RAM for               rhoin:      23.01 MB

     Dynamical RAM for            rho*nmix:     104.44 MB

     Dynamical RAM for           G-vectors:      27.74 MB

     Dynamical RAM for          h,s,v(r/c):       1.85 MB

     Dynamical RAM for          <psi|beta>:       0.33 MB

     Dynamical RAM for                 psi:     231.81 MB

     Dynamical RAM for                hpsi:     231.81 MB

     Dynamical RAM for      wfcinit/wfcrot:     232.27 MB

     Estimated static dynamical RAM per process >     619.19 MB

     Estimated max dynamical RAM per process >       1.16 GB

     Initial potential from superposition of free atoms

     starting charge     234.9905, renormalised to     235.0000

     negative rho (up, down):  6.130E-05 0.000E+00
     Starting wfcs are  163 randomized atomic wfcs

     total cpu time spent up to now is        1.6 secs

     Self-consistent Calculation
[tb_dev] Currently allocated     2.65E+00 Mbytes, locked:    0 /   4
[tb_pin] Currently allocated     0.00E+00 Mbytes, locked:    0 /   0

     iteration #  1     ecut=    70.00 Ry     beta= 0.70
     Davidson diagonalization with overlap

---- Real-time Memory Report at c_bands before calling an iterative solver
          1123 MiB given to the printing process from OS
             0 MiB allocation reported by mallinfo(arena+hblkhd)
         16845 MiB available memory on the node where the printing process lives
     GPU memory used/free/total (MiB): 3100 / 8813 / 11914
------------------
     ethr =  1.00E-02,  avg # of iterations =  3.0

     Threshold (ethr) on eigenvalues was too large:
     Diagonalizing with lowered threshold

     Davidson diagonalization with overlap

---- Real-time Memory Report at c_bands before calling an iterative solver
          1148 MiB given to the printing process from OS
             0 MiB allocation reported by mallinfo(arena+hblkhd)
         16815 MiB available memory on the node where the printing process lives
     GPU memory used/free/total (MiB): 3574 / 8339 / 11914
------------------
     ethr =  4.48E-04,  avg # of iterations =  4.0

     total cpu time spent up to now is        6.4 secs

     total energy              =   -1604.59866725 Ry
     estimated scf accuracy    <       1.34866875 Ry
[tb_dev] Currently allocated     1.07E-04 Mbytes, locked:    0 /   1
[tb_pin] Currently allocated     0.00E+00 Mbytes, locked:    0 /   0

     iteration #  2     ecut=    70.00 Ry     beta= 0.70
     Davidson diagonalization with overlap

---- Real-time Memory Report at c_bands before calling an iterative solver
          1196 MiB given to the printing process from OS
             0 MiB allocation reported by mallinfo(arena+hblkhd)
         16761 MiB available memory on the node where the printing process lives
     GPU memory used/free/total (MiB): 3686 / 8227 / 11914
------------------
     ethr =  5.74E-04,  avg # of iterations = 12.0

     total cpu time spent up to now is        9.9 secs

     total energy              =   -1603.82761259 Ry
     estimated scf accuracy    <       8.46722528 Ry
[tb_dev] Currently allocated     1.07E-04 Mbytes, locked:    0 /   1
[tb_pin] Currently allocated     0.00E+00 Mbytes, locked:    0 /   0

     iteration #  3     ecut=    70.00 Ry     beta= 0.70
     Davidson diagonalization with overlap

---- Real-time Memory Report at c_bands before calling an iterative solver
          1224 MiB given to the printing process from OS
             0 MiB allocation reported by mallinfo(arena+hblkhd)
         16733 MiB available memory on the node where the printing process lives
     GPU memory used/free/total (MiB): 3686 / 8227 / 11914
------------------
     ethr =  5.74E-04,  avg # of iterations = 11.0

     total cpu time spent up to now is       13.1 secs

     total energy              =   -1605.00918245 Ry
     estimated scf accuracy    <       1.14908739 Ry
[tb_dev] Currently allocated     1.07E-04 Mbytes, locked:    0 /   1
[tb_pin] Currently allocated     0.00E+00 Mbytes, locked:    0 /   0

     iteration #  4     ecut=    70.00 Ry     beta= 0.70
     Davidson diagonalization with overlap

---- Real-time Memory Report at c_bands before calling an iterative solver
          1245 MiB given to the printing process from OS
             0 MiB allocation reported by mallinfo(arena+hblkhd)
         16697 MiB available memory on the node where the printing process lives
     GPU memory used/free/total (MiB): 3686 / 8227 / 11914
------------------
     ethr =  4.89E-04,  avg # of iterations =  3.0

     total cpu time spent up to now is       15.4 secs

     total energy              =   -1605.08254933 Ry
     estimated scf accuracy    <       1.31410793 Ry
[tb_dev] Currently allocated     1.07E-04 Mbytes, locked:    0 /   1
[tb_pin] Currently allocated     0.00E+00 Mbytes, locked:    0 /   0

     iteration #  5     ecut=    70.00 Ry     beta= 0.70
     Davidson diagonalization with overlap

---- Real-time Memory Report at c_bands before calling an iterative solver
          1265 MiB given to the printing process from OS
             0 MiB allocation reported by mallinfo(arena+hblkhd)
         16671 MiB available memory on the node where the printing process lives
     GPU memory used/free/total (MiB): 3686 / 8227 / 11914
------------------
     ethr =  4.89E-04,  avg # of iterations =  2.0

     total cpu time spent up to now is       17.4 secs

     total energy              =   -1605.19166989 Ry
     estimated scf accuracy    <       0.08478329 Ry
[tb_dev] Currently allocated     1.07E-04 Mbytes, locked:    0 /   1
[tb_pin] Currently allocated     0.00E+00 Mbytes, locked:    0 /   0

     iteration #  6     ecut=    70.00 Ry     beta= 0.70
     Davidson diagonalization with overlap

---- Real-time Memory Report at c_bands before calling an iterative solver
          1291 MiB given to the printing process from OS
             0 MiB allocation reported by mallinfo(arena+hblkhd)
         16643 MiB available memory on the node where the printing process lives
     GPU memory used/free/total (MiB): 3686 / 8227 / 11914
------------------
     ethr =  3.61E-05,  avg # of iterations =  9.0

     total cpu time spent up to now is       20.0 secs

     total energy              =   -1605.20441697 Ry
     estimated scf accuracy    <       0.06904575 Ry
[tb_dev] Currently allocated     1.07E-04 Mbytes, locked:    0 /   1
[tb_pin] Currently allocated     0.00E+00 Mbytes, locked:    0 /   0

     iteration #  7     ecut=    70.00 Ry     beta= 0.70
     Davidson diagonalization with overlap

---- Real-time Memory Report at c_bands before calling an iterative solver
          1330 MiB given to the printing process from OS
             0 MiB allocation reported by mallinfo(arena+hblkhd)
         16604 MiB available memory on the node where the printing process lives
     GPU memory used/free/total (MiB): 3686 / 8227 / 11914
------------------
     ethr =  2.94E-05,  avg # of iterations =  2.0

     total cpu time spent up to now is       22.1 secs

     total energy              =   -1605.21015100 Ry
     estimated scf accuracy    <       0.01200655 Ry
[tb_dev] Currently allocated     1.07E-04 Mbytes, locked:    0 /   1
[tb_pin] Currently allocated     0.00E+00 Mbytes, locked:    0 /   0

     iteration #  8     ecut=    70.00 Ry     beta= 0.70
     Davidson diagonalization with overlap

---- Real-time Memory Report at c_bands before calling an iterative solver
          1363 MiB given to the printing process from OS
             0 MiB allocation reported by mallinfo(arena+hblkhd)
         16575 MiB available memory on the node where the printing process lives
     GPU memory used/free/total (MiB): 3686 / 8227 / 11914
------------------
     ethr =  5.11E-06,  avg # of iterations = 15.0

     total cpu time spent up to now is       25.5 secs

     total energy              =   -1605.21097513 Ry
     estimated scf accuracy    <       0.02740367 Ry
[tb_dev] Currently allocated     1.07E-04 Mbytes, locked:    0 /   1
[tb_pin] Currently allocated     0.00E+00 Mbytes, locked:    0 /   0

     iteration #  9     ecut=    70.00 Ry     beta= 0.70
     Davidson diagonalization with overlap

---- Real-time Memory Report at c_bands before calling an iterative solver
          1384 MiB given to the printing process from OS
             0 MiB allocation reported by mallinfo(arena+hblkhd)
         16555 MiB available memory on the node where the printing process lives
     GPU memory used/free/total (MiB): 3686 / 8227 / 11914
------------------
     ethr =  5.11E-06,  avg # of iterations =  2.0

     total cpu time spent up to now is       27.6 secs

     total energy              =   -1605.21249934 Ry
     estimated scf accuracy    <       0.00796154 Ry
[tb_dev] Currently allocated     1.07E-04 Mbytes, locked:    0 /   1
[tb_pin] Currently allocated     0.00E+00 Mbytes, locked:    0 /   0

     iteration # 10     ecut=    70.00 Ry     beta= 0.70
     Davidson diagonalization with overlap

---- Real-time Memory Report at c_bands before calling an iterative solver
          1404 MiB given to the printing process from OS
             0 MiB allocation reported by mallinfo(arena+hblkhd)
         16537 MiB available memory on the node where the printing process lives
     GPU memory used/free/total (MiB): 3686 / 8227 / 11914
------------------
     ethr =  3.39E-06,  avg # of iterations =  2.0

     total cpu time spent up to now is       29.7 secs

     total energy              =   -1605.21313211 Ry
     estimated scf accuracy    <       0.00186059 Ry
[tb_dev] Currently allocated     1.07E-04 Mbytes, locked:    0 /   1
[tb_pin] Currently allocated     0.00E+00 Mbytes, locked:    0 /   0

     iteration # 11     ecut=    70.00 Ry     beta= 0.70
     Davidson diagonalization with overlap

---- Real-time Memory Report at c_bands before calling an iterative solver
          1404 MiB given to the printing process from OS
             0 MiB allocation reported by mallinfo(arena+hblkhd)
         16535 MiB available memory on the node where the printing process lives
     GPU memory used/free/total (MiB): 3686 / 8227 / 11914
------------------
     ethr =  7.92E-07,  avg # of iterations =  2.0

     total cpu time spent up to now is       31.8 secs

     total energy              =   -1605.21323895 Ry
     estimated scf accuracy    <       0.00062051 Ry
[tb_dev] Currently allocated     1.07E-04 Mbytes, locked:    0 /   1
[tb_pin] Currently allocated     0.00E+00 Mbytes, locked:    0 /   0

     iteration # 12     ecut=    70.00 Ry     beta= 0.70
     Davidson diagonalization with overlap

---- Real-time Memory Report at c_bands before calling an iterative solver
          1404 MiB given to the printing process from OS
             0 MiB allocation reported by mallinfo(arena+hblkhd)
         16535 MiB available memory on the node where the printing process lives
     GPU memory used/free/total (MiB): 3686 / 8227 / 11914
------------------
     ethr =  2.64E-07,  avg # of iterations =  2.0

     total cpu time spent up to now is       33.9 secs

     total energy              =   -1605.21332188 Ry
     estimated scf accuracy    <       0.00022811 Ry
[tb_dev] Currently allocated     1.07E-04 Mbytes, locked:    0 /   1
[tb_pin] Currently allocated     0.00E+00 Mbytes, locked:    0 /   0

     iteration # 13     ecut=    70.00 Ry     beta= 0.70
     Davidson diagonalization with overlap

---- Real-time Memory Report at c_bands before calling an iterative solver
          1404 MiB given to the printing process from OS
             0 MiB allocation reported by mallinfo(arena+hblkhd)
         16532 MiB available memory on the node where the printing process lives
     GPU memory used/free/total (MiB): 3686 / 8227 / 11914
------------------
     ethr =  9.71E-08,  avg # of iterations =  2.0

     total cpu time spent up to now is       36.0 secs

     total energy              =   -1605.21333361 Ry
     estimated scf accuracy    <       0.00004699 Ry
[tb_dev] Currently allocated     1.07E-04 Mbytes, locked:    0 /   1
[tb_pin] Currently allocated     0.00E+00 Mbytes, locked:    0 /   0

     iteration # 14     ecut=    70.00 Ry     beta= 0.70
     Davidson diagonalization with overlap

---- Real-time Memory Report at c_bands before calling an iterative solver
          1404 MiB given to the printing process from OS
             0 MiB allocation reported by mallinfo(arena+hblkhd)
         16535 MiB available memory on the node where the printing process lives
     GPU memory used/free/total (MiB): 3686 / 8227 / 11914
------------------
     ethr =  2.00E-08,  avg # of iterations =  3.0

     total cpu time spent up to now is       38.2 secs

     total energy              =   -1605.21333377 Ry
     estimated scf accuracy    <       0.00009738 Ry
[tb_dev] Currently allocated     1.07E-04 Mbytes, locked:    0 /   1
[tb_pin] Currently allocated     0.00E+00 Mbytes, locked:    0 /   0

     iteration # 15     ecut=    70.00 Ry     beta= 0.70
     Davidson diagonalization with overlap

---- Real-time Memory Report at c_bands before calling an iterative solver
          1407 MiB given to the printing process from OS
             0 MiB allocation reported by mallinfo(arena+hblkhd)
         16530 MiB available memory on the node where the printing process lives
     GPU memory used/free/total (MiB): 3686 / 8227 / 11914
------------------
     ethr =  2.00E-08,  avg # of iterations =  2.0

     total cpu time spent up to now is       40.4 secs

     total energy              =   -1605.21333835 Ry
     estimated scf accuracy    <       0.00003877 Ry
[tb_dev] Currently allocated     1.07E-04 Mbytes, locked:    0 /   1
[tb_pin] Currently allocated     0.00E+00 Mbytes, locked:    0 /   0

     iteration # 16     ecut=    70.00 Ry     beta= 0.70
     Davidson diagonalization with overlap

---- Real-time Memory Report at c_bands before calling an iterative solver
          1407 MiB given to the printing process from OS
             0 MiB allocation reported by mallinfo(arena+hblkhd)
         16529 MiB available memory on the node where the printing process lives
     GPU memory used/free/total (MiB): 3686 / 8227 / 11914
------------------
     ethr =  1.65E-08,  avg # of iterations =  2.0

     total cpu time spent up to now is       42.4 secs

     total energy              =   -1605.21334128 Ry
     estimated scf accuracy    <       0.00000549 Ry
[tb_dev] Currently allocated     1.07E-04 Mbytes, locked:    0 /   1
[tb_pin] Currently allocated     0.00E+00 Mbytes, locked:    0 /   0

     iteration # 17     ecut=    70.00 Ry     beta= 0.70
     Davidson diagonalization with overlap

---- Real-time Memory Report at c_bands before calling an iterative solver
          1407 MiB given to the printing process from OS
             0 MiB allocation reported by mallinfo(arena+hblkhd)
         16528 MiB available memory on the node where the printing process lives
     GPU memory used/free/total (MiB): 3686 / 8227 / 11914
------------------
     ethr =  2.34E-09,  avg # of iterations =  2.0

     total cpu time spent up to now is       44.7 secs

     total energy              =   -1605.21334124 Ry
     estimated scf accuracy    <       0.00000869 Ry
[tb_dev] Currently allocated     1.07E-04 Mbytes, locked:    0 /   1
[tb_pin] Currently allocated     0.00E+00 Mbytes, locked:    0 /   0

     iteration # 18     ecut=    70.00 Ry     beta= 0.70
     Davidson diagonalization with overlap

---- Real-time Memory Report at c_bands before calling an iterative solver
          1407 MiB given to the printing process from OS
             0 MiB allocation reported by mallinfo(arena+hblkhd)
         16528 MiB available memory on the node where the printing process lives
     GPU memory used/free/total (MiB): 3686 / 8227 / 11914
------------------
     ethr =  2.34E-09,  avg # of iterations =  3.0

     total cpu time spent up to now is       47.1 secs

     total energy              =   -1605.21334088 Ry
     estimated scf accuracy    <       0.00001818 Ry
[tb_dev] Currently allocated     1.07E-04 Mbytes, locked:    0 /   1
[tb_pin] Currently allocated     0.00E+00 Mbytes, locked:    0 /   0

     iteration # 19     ecut=    70.00 Ry     beta= 0.70
     Davidson diagonalization with overlap

---- Real-time Memory Report at c_bands before calling an iterative solver
          1407 MiB given to the printing process from OS
             0 MiB allocation reported by mallinfo(arena+hblkhd)
         16526 MiB available memory on the node where the printing process lives
     GPU memory used/free/total (MiB): 3686 / 8227 / 11914
------------------
     ethr =  2.34E-09,  avg # of iterations =  2.0

     total cpu time spent up to now is       49.2 secs

     End of self-consistent calculation

          k = 0.0000 0.0000 0.0000 ( 53482 PWs)   bands (ev):

   -61.5825 -61.5661 -61.5658 -61.5288 -61.5155 -61.5153 -61.4849 -61.4728
   -61.4724 -35.8706 -35.8072 -35.8071 -35.7903 -35.7902 -35.7803 -35.7502
   -35.7394 -35.7377 -35.7243 -35.7243 -35.7054 -35.7054 -35.6898 -35.6689
   -35.6687 -35.6388 -35.6162 -35.6157 -35.5833 -35.5763 -35.5762 -35.5379
   -35.5377 -35.5295 -35.4791 -35.4791 -15.5965 -14.7225 -13.6772 -13.6772
   -13.6678 -13.6677 -13.6575 -13.6209 -13.3788 -13.1428 -13.1426 -13.1372
   -13.1370 -13.0909 -12.9006 -12.8592 -12.7636 -12.7597  -8.3885  -6.3979
    -6.3979  -6.3364  -6.1611  -6.1611  -6.0791  -6.0649  -6.0649  -5.9183
    -5.5326  -5.5326  -5.1813  -5.1813  -5.0413  -5.0268  -5.0268  -4.9884
    -4.9339  -4.9339  -4.7709  -4.7708  -4.7612  -4.7611  -4.7323  -4.4994
    -4.4142  -3.8913  -3.8913  -3.8027  -3.7309  -3.7309  -3.7218  -3.6797
    -3.6784  -3.6784  -3.4432  -3.4432  -3.0039  -2.8700  -2.5886  -2.5573
    -2.5572  -2.4909  -2.4908  -2.4539  -2.3923  -2.3922  -2.2962  -2.2962
    -2.2390  -2.2240  -2.2112  -2.2111  -1.8498  -1.8004  -1.8003  -1.7512
    -1.7327  -1.7326  -0.8873  -0.7966  -0.7966   0.8748   0.8749   0.9566
     1.2830   1.2830   1.4207   1.4450   1.4451   1.4626   1.5039   1.5039
     1.5707   1.5782   1.5783   1.8849   1.8850   2.0895   2.1376   2.1376
     2.2328   2.2329   2.5604   2.5605   2.5740   2.5789

     occupation numbers 
     1.0000   1.0000   1.0000   1.0000   1.0000   1.0000   1.0000   1.0000
     1.0000   1.0000   1.0000   1.0000   1.0000   1.0000   1.0000   1.0000
     1.0000   1.0000   1.0000   1.0000   1.0000   1.0000   1.0000   1.0000
     1.0000   1.0000   1.0000   1.0000   1.0000   1.0000   1.0000   1.0000
     1.0000   1.0000   1.0000   1.0000   1.0000   1.0000   1.0000   1.0000
     1.0000   1.0000   1.0000   1.0000   1.0000   1.0000   1.0000   1.0000
     1.0000   1.0000   1.0000   1.0000   1.0000   1.0000   1.0000   1.0000
     1.0000   1.0000   1.0000   1.0000   1.0000   1.0000   1.0000   1.0000
     1.0000   1.0000   1.0000   1.0000   1.0000   1.0000   1.0000   1.0000
     1.0000   1.0000   1.0000   1.0000   1.0000   1.0000   1.0000   1.0000
     1.0000   1.0000   1.0000   1.0000   1.0000   1.0000   1.0000   1.0000
     1.0000   1.0000   1.0000   1.0000   1.0000   1.0000   1.0000   1.0000
     1.0000   1.0000   1.0000   1.0000   1.0000   1.0000   1.0000   1.0000
     1.0000   1.0000   1.0000   1.0000   1.0000   1.0000   1.0000   1.0000
     1.0000   1.0000   1.0000   1.0000   1.0000   0.2482   0.2469   0.0049
     0.0000   0.0000   0.0000   0.0000   0.0000   0.0000   0.0000   0.0000
     0.0000   0.0000   0.0000   0.0000   0.0000   0.0000   0.0000   0.0000
     0.0000   0.0000   0.0000   0.0000   0.0000   0.0000

     the Fermi energy is     0.8578 ev

!    total energy              =   -1605.21334198 Ry
     estimated scf accuracy    <       0.00000041 Ry
     smearing contrib. (-TS)   =      -0.00313676 Ry
     internal energy E=F+TS    =   -1605.21020522 Ry

     The total energy is F=E-TS. E is the sum of the following terms:
     one-electron contribution =  -10318.47011177 Ry
     hartree contribution      =    5157.54643449 Ry
     xc contribution           =    -223.11005183 Ry
     ewald contribution        =    3778.82352389 Ry

     convergence has been achieved in  19 iterations

     Writing all to output data dir ./../../tmp/MoS2.save/ :
     XML data file, charge density, pseudopotentials, collected wavefunctions
 
     init_run     :      1.29s CPU      1.47s WALL (       1 calls)
     electrons    :     47.53s CPU     47.63s WALL (       1 calls)

     Called by init_run:
     wfcinit      :      0.87s CPU      0.89s WALL (       1 calls)
     wfcinit:atom :      0.01s CPU      0.01s WALL (       1 calls)
     wfcinit:wfcr :      0.84s CPU      0.86s WALL (       1 calls)
     potinit      :      0.12s CPU      0.16s WALL (       1 calls)
     hinit0       :      0.20s CPU      0.22s WALL (       1 calls)

     Called by electrons:
     c_bands      :     40.00s CPU     40.02s WALL (      20 calls)
     sum_band     :      4.87s CPU      4.88s WALL (      20 calls)
     v_of_rho     :      1.14s CPU      1.18s WALL (      20 calls)
     v_h          :      0.30s CPU      0.31s WALL (      20 calls)
     v_xc         :      0.85s CPU      0.87s WALL (      20 calls)
     mix_rho      :      1.16s CPU      1.22s WALL (      20 calls)

     Called by c_bands:
     init_us_2    :      0.24s CPU      0.24s WALL (      41 calls)
     regterg      :     39.14s CPU     39.15s WALL (      20 calls)

     Called by sum_band:
     sum_band:wei :      0.00s CPU      0.00s WALL (      20 calls)
     sum_band:loo :      4.56s CPU      4.56s WALL (      20 calls)
     sum_band:buf :      0.32s CPU      0.32s WALL (      20 calls)
     sum_band:ini :      0.11s CPU      0.11s WALL (      20 calls)

     Called by *egterg:
     rdiaghg      :      1.00s CPU      1.01s WALL (     104 calls)
                                        1.00s GPU  (     104 calls)
     regterg:over :      4.07s CPU      4.07s WALL (      85 calls)
     regterg:upda :      1.90s CPU      1.90s WALL (      85 calls)
     regterg:last :      3.45s CPU      3.45s WALL (      42 calls)
     h_psi        :     26.89s CPU     26.92s WALL (     106 calls)
                                       26.92s GPU  (     106 calls)
     g_psi        :      0.00s CPU      0.15s WALL (      85 calls)
                                        0.15s GPU  (      85 calls)

     Called by h_psi:
     h_psi:calbec :      0.13s CPU      3.87s WALL (     106 calls)
                                        3.87s GPU  (     106 calls)
     vloc_psi     :     19.59s CPU     19.60s WALL (     106 calls)
                                       19.60s GPU  (     106 calls)
     add_vuspsi   :      0.02s CPU      3.39s WALL (     106 calls)
                                        3.39s GPU  (     106 calls)

     General routines
     calbec       :      0.13s CPU      0.14s WALL (     106 calls)
     fft          :      0.00s CPU      0.41s WALL (     160 calls)
                                        0.41s GPU  (     160 calls)
     ffts         :      0.00s CPU      0.05s WALL (      20 calls)
                                        0.05s GPU  (      20 calls)
     fftw         :      0.02s CPU     21.25s WALL (    1992 calls)
                                       21.24s GPU  (    1992 calls)
 
     Parallel routines
 
     PWSCF        :     48.94s CPU     49.33s WALL

 
   This run was terminated on:   1: 0:14  12Jul2026            

=------------------------------------------------------------------------------=
   JOB DONE.
=------------------------------------------------------------------------------=
