
     Program PWSCF v.7.4.1 starts on 12Jul2026 at  0:26:43 

     This program is part of the open-source Quantum ESPRESSO suite
     for quantum simulation of materials; please cite
         "P. Giannozzi et al., J. Phys.:Condens. Matter 21 395502 (2009);
         "P. Giannozzi et al., J. Phys.:Condens. Matter 29 465901 (2017);
         "P. Giannozzi et al., J. Chem. Phys. 152 154105 (2020);
          URL http://www.quantum-espresso.org", 
     in publications or presentations arising from this work. More details at
     http://www.quantum-espresso.org/quote

     Parallel version (MPI), running on     1 processors

     MPI processes distributed on     1 nodes
     18095 MiB available memory on the printing compute node when the environment starts
 
     Reading input from h2_relax.in

     Current dimensions of program PWSCF are:
     Max number of different atomic species (ntypx) = 10
     Max number of k-points (npk) =  40000
     Max angular momentum in pseudopotentials (lmaxx) =  4

     gamma-point specific algorithms are used
     Message from routine setup:
     using ibrav=0 with symmetry is DISCOURAGED, use correct ibrav instead
 
     Subspace diagonalization in iterative solution of the eigenvalue problem:
     a serial algorithm will be used

 
     G-vector sticks info
     --------------------
     sticks:   dense  smooth     PW     G-vecs:    dense   smooth      PW
     Sum       15329   15329   3833              1429635  1429635  178925
 
     Using Slab Decomposition
 


     bravais-lattice index     =            0
     lattice parameter (alat)  =      28.3459  a.u.
     unit-cell volume          =   22775.6289 (a.u.)^3
     number of atoms/cell      =            2
     number of atomic types    =            1
     number of electrons       =         2.00
     number of Kohn-Sham states=            5
     kinetic-energy cutoff     =      60.0000  Ry
     charge density cutoff     =     240.0000  Ry
     scf convergence threshold =      1.0E-06
     mixing beta               =       0.4000
     number of iterations used =            8  plain     mixing
     energy convergence thresh.=      1.0E-04
     force convergence thresh. =      1.0E-03
     Exchange-correlation= PBE
                           (   1   4   3   4   0   0   0)
     nstep                     =           50


     GPU acceleration is ACTIVE.  1 visible GPUs per MPI rank
     GPU-aware MPI enabled


     celldm(1)=  28.345892  celldm(2)=   0.000000  celldm(3)=   0.000000
     celldm(4)=   0.000000  celldm(5)=   0.000000  celldm(6)=   0.000000

     crystal axes: (cart. coord. in units of alat)
               a(1) = (   1.000000   0.000000   0.000000 )  
               a(2) = (   0.000000   1.000000   0.000000 )  
               a(3) = (   0.000000   0.000000   1.000000 )  

     reciprocal axes: (cart. coord. in units 2 pi/alat)
               b(1) = (  1.000000  0.000000  0.000000 )  
               b(2) = (  0.000000  1.000000  0.000000 )  
               b(3) = (  0.000000  0.000000  1.000000 )  


     PseudoPot. # 1 for H  read from file:
     ./../../pseudo/H_ONCV_PBE_sr.upf
     MD5 check sum: 8975ef619c0c80d0ef0fa21f3286b90d
     Pseudo is Norm-conserving, Zval =  1.0
     Generated using ONCVPSP code by D. R. Hamann
     Using radial grid of 1166 points,  2 beta functions with: 
                l(1) =   0
                l(2) =   0

     atomic species   valence    mass     pseudopotential
     H                 1.00     1.00794     H ( 1.00)

      8 Sym. Ops. (no inversion) found ( 6 have fractional translation)



   Cartesian axes

     site n.     atom                  positions (alat units)
         1        H      tau(   1) = (   0.6616529   0.6666667   0.6666667  )
         2        H      tau(   2) = (   0.7116805   0.6666667   0.6666667  )

     number of k points=     1  Marzari-Vanderbilt smearing, width (Ry)=  0.0050
                       cart. coord. in units 2pi/alat
        k(    1) = (   0.0000000   0.0000000   0.0000000), wk =   2.0000000

     Dense  grid:   714818 G-vectors     FFT dimensions: ( 144, 144, 144)

     Estimated max dynamical RAM per process >     541.84 MB

     Initial potential from superposition of free atoms

     starting charge       2.0000, renormalised to       2.0000

     negative rho (up, down):  3.084E-04 0.000E+00
     Starting wfcs are    2 randomized atomic wfcs +    3 random wfcs

     total cpu time spent up to now is        0.7 secs

     Self-consistent Calculation

     iteration #  1     ecut=    60.00 Ry     beta= 0.40
     Davidson diagonalization with overlap
     ethr =  1.00E-02,  avg # of iterations =  6.0

     negative rho (up, down):  1.847E-04 0.000E+00

     total cpu time spent up to now is        1.3 secs

     total energy              =      -2.34238099 Ry
     estimated scf accuracy    <       0.11463393 Ry

     iteration #  2     ecut=    60.00 Ry     beta= 0.40
     Davidson diagonalization with overlap
     ethr =  5.73E-03,  avg # of iterations =  1.0

     negative rho (up, down):  3.642E-05 0.000E+00

     total cpu time spent up to now is        1.6 secs

     total energy              =      -2.32873562 Ry
     estimated scf accuracy    <       0.02823033 Ry

     iteration #  3     ecut=    60.00 Ry     beta= 0.40
     Davidson diagonalization with overlap
     ethr =  1.41E-03,  avg # of iterations =  2.0

     negative rho (up, down):  1.663E-05 0.000E+00

     total cpu time spent up to now is        1.9 secs

     total energy              =      -2.33214435 Ry
     estimated scf accuracy    <       0.00011030 Ry

     iteration #  4     ecut=    60.00 Ry     beta= 0.40
     Davidson diagonalization with overlap
     c_bands:  4 eigenvalues not converged
     ethr =  5.52E-06,  avg # of iterations = 20.0

     negative rho (up, down):  5.060E-07 0.000E+00

     total cpu time spent up to now is        3.0 secs

     total energy              =      -2.33216616 Ry
     estimated scf accuracy    <       0.00005159 Ry

     iteration #  5     ecut=    60.00 Ry     beta= 0.40
     Davidson diagonalization with overlap
     c_bands:  1 eigenvalues not converged
     ethr =  2.58E-06,  avg # of iterations = 20.0

     total cpu time spent up to now is        3.9 secs

     total energy              =      -2.33217295 Ry
     estimated scf accuracy    <       0.00000807 Ry

     iteration #  6     ecut=    60.00 Ry     beta= 0.40
     Davidson diagonalization with overlap
     ethr =  4.03E-07,  avg # of iterations = 12.0

     total cpu time spent up to now is        4.4 secs

     End of self-consistent calculation

          k = 0.0000 0.0000 0.0000 ( 89463 PWs)   bands (ev):

   -10.3262  -0.0636   0.2180   0.5258   0.5289

     the Fermi energy is    -4.8986 ev

!    total energy              =      -2.33217361 Ry
     estimated scf accuracy    <       0.00000013 Ry
     smearing contrib. (-TS)   =      -0.00000000 Ry
     internal energy E=F+TS    =      -2.33217361 Ry

     The total energy is F=E-TS. E is the sum of the following terms:
     one-electron contribution =      -4.18341881 Ry
     hartree contribution      =       2.21392404 Ry
     xc contribution           =      -1.37302829 Ry
     ewald contribution        =       1.01034945 Ry

     convergence has been achieved in   6 iterations

     Forces acting on atoms (cartesian axes, Ry/au):

     atom    1 type  1   force =     0.00087109    0.00000000    0.00000000
     atom    2 type  1   force =    -0.00087109    0.00000000    0.00000000

     Total force =     0.001232     Total SCF correction =     0.000103

     BFGS Geometry Optimization
     Energy error            =      1.5E-06 Ry
     Gradient error          =      8.7E-04 Ry/Bohr

     bfgs converged in   1 scf cycles and   0 bfgs steps
     (criteria: energy <  1.0E-04 Ry, force <  1.0E-03 Ry/Bohr)

     End of BFGS Geometry Optimization

     Final energy             =      -2.3321736146 Ry
Begin final coordinates

ATOMIC_POSITIONS (angstrom)
H                9.9247929201       10.0000000000       10.0000000000
H               10.6752070799       10.0000000000       10.0000000000
End final coordinates



     Writing all to output data dir ./../../tmp/H.save/ :
     XML data file, charge density, pseudopotentials, collected wavefunctions
 
     init_run     :      0.50s CPU      0.68s WALL (       1 calls)
     electrons    :      3.63s CPU      3.73s WALL (       1 calls)
     forces       :      0.07s CPU      0.07s WALL (       1 calls)

     Called by init_run:
     wfcinit      :      0.09s CPU      0.11s WALL (       1 calls)
     potinit      :      0.12s CPU      0.18s WALL (       1 calls)
     hinit0       :      0.12s CPU      0.19s WALL (       1 calls)

     Called by electrons:
     c_bands      :      2.37s CPU      2.38s WALL (       6 calls)
     sum_band     :      0.25s CPU      0.25s WALL (       6 calls)
     v_of_rho     :      0.58s CPU      0.64s WALL (       7 calls)
     mix_rho      :      0.32s CPU      0.37s WALL (       6 calls)

     Called by c_bands:
     init_us_2    :      0.01s CPU      0.01s WALL (      14 calls)
     regterg      :      2.35s CPU      2.35s WALL (       6 calls)

     Called by *egterg:
     rdiaghg      :      0.04s CPU      0.05s WALL (      67 calls)
                                        0.05s GPU  (      67 calls)
     h_psi        :      1.65s CPU      1.67s WALL (      68 calls)
                                        1.67s GPU  (      68 calls)
     g_psi        :      0.00s CPU      0.02s WALL (      61 calls)
                                        0.02s GPU  (      61 calls)

     Called by h_psi:
     h_psi:calbec :      0.03s CPU      0.27s WALL (      68 calls)
                                        0.27s GPU  (      68 calls)
     vloc_psi     :      1.38s CPU      1.38s WALL (      68 calls)
                                        1.38s GPU  (      68 calls)
     add_vuspsi   :      0.00s CPU      0.02s WALL (      68 calls)
                                        0.02s GPU  (      68 calls)

     General routines
     calbec       :      0.03s CPU      0.04s WALL (      72 calls)
     fft          :      0.07s CPU      0.39s WALL (      57 calls)
                                        0.39s GPU  (      57 calls)
     ffts         :      0.00s CPU      0.03s WALL (       6 calls)
                                        0.03s GPU  (       6 calls)
     fftw         :      0.00s CPU      1.35s WALL (     154 calls)
                                        1.35s GPU  (     154 calls)
 
     Parallel routines
 
     PWSCF        :      4.25s CPU      4.55s WALL

 
   This run was terminated on:   0:26:47  12Jul2026            

=------------------------------------------------------------------------------=
   JOB DONE.
=------------------------------------------------------------------------------=
