
     Program PWSCF v.7.4.1 starts on 12Jul2026 at  0:27:48 

     This program is part of the open-source Quantum ESPRESSO suite
     for quantum simulation of materials; please cite
         "P. Giannozzi et al., J. Phys.:Condens. Matter 21 395502 (2009);
         "P. Giannozzi et al., J. Phys.:Condens. Matter 29 465901 (2017);
         "P. Giannozzi et al., J. Chem. Phys. 152 154105 (2020);
          URL http://www.quantum-espresso.org", 
     in publications or presentations arising from this work. More details at
     http://www.quantum-espresso.org/quote

     Parallel version (MPI), running on     1 processors

     MPI processes distributed on     1 nodes
     18046 MiB available memory on the printing compute node when the environment starts
 
     Reading input from h2_scf.in

     Current dimensions of program PWSCF are:
     Max number of different atomic species (ntypx) = 10
     Max number of k-points (npk) =  40000
     Max angular momentum in pseudopotentials (lmaxx) =  4

     gamma-point specific algorithms are used
     Message from routine setup:
     using ibrav=0 with symmetry is DISCOURAGED, use correct ibrav instead
 
     Subspace diagonalization in iterative solution of the eigenvalue problem:
     a serial algorithm will be used

 
     G-vector sticks info
     --------------------
     sticks:   dense  smooth     PW     G-vecs:    dense   smooth      PW
     Sum       15329   15329   3833              1429635  1429635  178925
 
     Using Slab Decomposition
 


     bravais-lattice index     =            0
     lattice parameter (alat)  =      28.3459  a.u.
     unit-cell volume          =   22775.6289 (a.u.)^3
     number of atoms/cell      =            2
     number of atomic types    =            1
     number of electrons       =         2.00
     number of Kohn-Sham states=            5
     kinetic-energy cutoff     =      60.0000  Ry
     charge density cutoff     =     240.0000  Ry
     scf convergence threshold =      1.0E-08
     mixing beta               =       0.5000
     number of iterations used =            8  plain     mixing
     Exchange-correlation= PBE
                           (   1   4   3   4   0   0   0)

     GPU acceleration is ACTIVE.  1 visible GPUs per MPI rank
     GPU-aware MPI enabled


     celldm(1)=  28.345892  celldm(2)=   0.000000  celldm(3)=   0.000000
     celldm(4)=   0.000000  celldm(5)=   0.000000  celldm(6)=   0.000000

     crystal axes: (cart. coord. in units of alat)
               a(1) = (   1.000000   0.000000   0.000000 )  
               a(2) = (   0.000000   1.000000   0.000000 )  
               a(3) = (   0.000000   0.000000   1.000000 )  

     reciprocal axes: (cart. coord. in units 2 pi/alat)
               b(1) = (  1.000000  0.000000  0.000000 )  
               b(2) = (  0.000000  1.000000  0.000000 )  
               b(3) = (  0.000000  0.000000  1.000000 )  


     PseudoPot. # 1 for H  read from file:
     ./../../pseudo/H_ONCV_PBE_sr.upf
     MD5 check sum: 8975ef619c0c80d0ef0fa21f3286b90d
     Pseudo is Norm-conserving, Zval =  1.0
     Generated using ONCVPSP code by D. R. Hamann
     Using radial grid of 1166 points,  2 beta functions with: 
                l(1) =   0
                l(2) =   0

     atomic species   valence    mass     pseudopotential
     H                 1.00     1.00794     H ( 1.00)

      8 Sym. Ops. (no inversion) found ( 6 have fractional translation)



   Cartesian axes

     site n.     atom                  positions (alat units)
         1        H      tau(   1) = (   0.6616529   0.6666667   0.6666667  )
         2        H      tau(   2) = (   0.7116805   0.6666667   0.6666667  )

     number of k points=     1  Marzari-Vanderbilt smearing, width (Ry)=  0.0050
                       cart. coord. in units 2pi/alat
        k(    1) = (   0.0000000   0.0000000   0.0000000), wk =   2.0000000

     Dense  grid:   714818 G-vectors     FFT dimensions: ( 144, 144, 144)

     Estimated max dynamical RAM per process >     541.84 MB

     Initial potential from superposition of free atoms

     starting charge       2.0000, renormalised to       2.0000

     negative rho (up, down):  3.084E-04 0.000E+00
     Starting wfcs are    2 randomized atomic wfcs +    3 random wfcs

     total cpu time spent up to now is        0.6 secs

     Self-consistent Calculation

     iteration #  1     ecut=    60.00 Ry     beta= 0.50
     Davidson diagonalization with overlap
     ethr =  1.00E-02,  avg # of iterations =  6.0

     negative rho (up, down):  1.537E-04 0.000E+00

     total cpu time spent up to now is        1.1 secs

     total energy              =      -2.33505821 Ry
     estimated scf accuracy    <       0.11463393 Ry

     iteration #  2     ecut=    60.00 Ry     beta= 0.50
     Davidson diagonalization with overlap
     ethr =  5.73E-03,  avg # of iterations =  1.0

     negative rho (up, down):  2.996E-05 0.000E+00

     total cpu time spent up to now is        1.5 secs

     total energy              =      -2.33022710 Ry
     estimated scf accuracy    <       0.01534145 Ry

     iteration #  3     ecut=    60.00 Ry     beta= 0.50
     Davidson diagonalization with overlap
     ethr =  7.67E-04,  avg # of iterations =  3.0

     negative rho (up, down):  5.770E-06 0.000E+00

     total cpu time spent up to now is        1.9 secs

     total energy              =      -2.33216215 Ry
     estimated scf accuracy    <       0.00006335 Ry

     iteration #  4     ecut=    60.00 Ry     beta= 0.50
     Davidson diagonalization with overlap
     c_bands:  4 eigenvalues not converged
     ethr =  3.17E-06,  avg # of iterations = 20.0

     negative rho (up, down):  1.378E-08 0.000E+00

     total cpu time spent up to now is        2.9 secs

     total energy              =      -2.33216777 Ry
     estimated scf accuracy    <       0.00004050 Ry

     iteration #  5     ecut=    60.00 Ry     beta= 0.50
     Davidson diagonalization with overlap
     c_bands:  1 eigenvalues not converged
     ethr =  2.03E-06,  avg # of iterations = 20.0

     total cpu time spent up to now is        3.9 secs

     total energy              =      -2.33217351 Ry
     estimated scf accuracy    <       0.00000182 Ry

     iteration #  6     ecut=    60.00 Ry     beta= 0.50
     Davidson diagonalization with overlap
     ethr =  9.12E-08,  avg # of iterations = 12.0

     negative rho (up, down):  1.969E-08 0.000E+00

     total cpu time spent up to now is        4.4 secs

     total energy              =      -2.33217362 Ry
     estimated scf accuracy    <       0.00000009 Ry

     iteration #  7     ecut=    60.00 Ry     beta= 0.50
     Davidson diagonalization with overlap
     ethr =  4.67E-09,  avg # of iterations =  2.0

     total cpu time spent up to now is        4.7 secs

     End of self-consistent calculation

          k = 0.0000 0.0000 0.0000 ( 89463 PWs)   bands (ev):

   -10.3297  -0.0615   0.2178   0.5268   0.5297

     the Fermi energy is    -4.9000 ev

!    total energy              =      -2.33217364 Ry
     estimated scf accuracy    <          6.1E-10 Ry
     smearing contrib. (-TS)   =      -0.00000000 Ry
     internal energy E=F+TS    =      -2.33217364 Ry

     The total energy is F=E-TS. E is the sum of the following terms:
     one-electron contribution =      -4.18352985 Ry
     hartree contribution      =       2.21414520 Ry
     xc contribution           =      -1.37313844 Ry
     ewald contribution        =       1.01034945 Ry

     convergence has been achieved in   7 iterations

     Writing all to output data dir ./../../tmp/H.save/ :
     XML data file, charge density, pseudopotentials, collected wavefunctions
 
     init_run     :      0.44s CPU      0.57s WALL (       1 calls)
     electrons    :      4.03s CPU      4.13s WALL (       1 calls)

     Called by init_run:
     wfcinit      :      0.09s CPU      0.11s WALL (       1 calls)
     potinit      :      0.12s CPU      0.18s WALL (       1 calls)
     hinit0       :      0.06s CPU      0.08s WALL (       1 calls)

     Called by electrons:
     c_bands      :      2.52s CPU      2.53s WALL (       7 calls)
     sum_band     :      0.29s CPU      0.29s WALL (       7 calls)
     v_of_rho     :      0.66s CPU      0.72s WALL (       8 calls)
     mix_rho      :      0.41s CPU      0.47s WALL (       7 calls)

     Called by c_bands:
     init_us_2    :      0.01s CPU      0.01s WALL (      15 calls)
     regterg      :      2.50s CPU      2.50s WALL (       7 calls)

     Called by *egterg:
     rdiaghg      :      0.04s CPU      0.05s WALL (      71 calls)
                                        0.05s GPU  (      71 calls)
     h_psi        :      1.75s CPU      1.77s WALL (      72 calls)
                                        1.77s GPU  (      72 calls)
     g_psi        :      0.00s CPU      0.02s WALL (      64 calls)
                                        0.02s GPU  (      64 calls)

     Called by h_psi:
     h_psi:calbec :      0.03s CPU      0.28s WALL (      72 calls)
                                        0.28s GPU  (      72 calls)
     vloc_psi     :      1.47s CPU      1.47s WALL (      72 calls)
                                        1.47s GPU  (      72 calls)
     add_vuspsi   :      0.00s CPU      0.02s WALL (      72 calls)
                                        0.02s GPU  (      72 calls)

     General routines
     calbec       :      0.03s CPU      0.04s WALL (      72 calls)
     fft          :      0.00s CPU      0.30s WALL (      63 calls)
                                        0.30s GPU  (      63 calls)
     ffts         :      0.00s CPU      0.03s WALL (       7 calls)
                                        0.03s GPU  (       7 calls)
     fftw         :      0.00s CPU      1.45s WALL (     165 calls)
                                        1.45s GPU  (     165 calls)
 
     Parallel routines
 
     PWSCF        :      4.52s CPU      4.77s WALL

 
   This run was terminated on:   0:27:53  12Jul2026            

=------------------------------------------------------------------------------=
   JOB DONE.
=------------------------------------------------------------------------------=
